data_COF-103_n2_77K_LP_mm3_trappe
_audit_aif_version 63df4e8
_exptl_method GCMC
_exptl_adsorptive n2
_exptl_temperature 77
_adsnt_material_id COF-103
_simltn_code RASPA 2.0.41
_simltn_date 2023-03-15T19:33:29.500000
_simltn_size 1.1.1
_simltn_forcefield_adsorptive trappe
_simltn_forcefield_adsorbent mm3
_units_temperature K
_units_pressure Pa
_units_loading cm^3/g

loop_
_adsorp_pressure
_adsorp_amount_absolute
1.0 0.042478618164000004
10.0 0.7646151269530002
101.0 8.920509814519999
1013.0 143.74764386852098
10130.0 1232.2197557145519
3.0 0.297350327148
30.0 2.3363239990330005
3039.0 1124.961244849293
30390.0 1294.238538234662
304.0 25.742042607658995
5.0 0.38230756347700007
50.0 3.483246689467001
5065.0 1184.43131027954
50650.0 1320.023059460474
507.0 49.44511154342899
7.0 0.3823075634760001
70.0 5.522220361361001
709.0 70.21715582584301
7091.0 1199.5536983460888
70910.0 1322.9540841138178
