data_COF-103_n2_77K_LP_uff_dreiding
_audit_aif_version 63df4e8
_exptl_method GCMC
_exptl_adsorptive n2
_exptl_temperature 77
_adsnt_material_id COF-103
_simltn_code RASPA 2.0.41
_simltn_date 2023-03-06T19:35:27.999999488
_simltn_size 1.1.1
_simltn_forcefield_adsorptive dreiding
_simltn_forcefield_adsorbent uff
_units_temperature K
_units_pressure Pa
_units_loading cm^3/g

loop_
_adsorp_pressure
_adsorp_amount_absolute
1.0 1.8690591992250003
10.0 16.311789375146
101.0 1113.789368272042
1013.0 1398.608503064728
10130.0 1495.9694958976686
3.0 4.969998325223001
30.0 62.273654229091
3039.0 1455.0201079871244
30390.0 1516.3167539984217
304.0 1262.634446320298
5.0 8.113416069392999
50.0 142.770635650739
5065.0 1467.2114714003214
50650.0 1528.1258098481549
507.0 1339.3933093434719
7.0 11.086919340907999
70.0 1031.338370414837
709.0 1371.039879875997
7091.0 1470.4398463808157
70910.0 1519.8849579242506
