data_COF-103_n2_77K_LP_mm3_mm3
_audit_aif_version 63df4e8
_exptl_method GCMC
_exptl_adsorptive n2
_exptl_temperature 77
_adsnt_material_id COF-103
_simltn_code RASPA 2.0.41
_simltn_date 2023-03-06T19:30:19.499999744
_simltn_size 1.1.1
_simltn_forcefield_adsorptive mm3
_simltn_forcefield_adsorbent mm3
_units_temperature K
_units_pressure Pa
_units_loading cm^3/g

loop_
_adsorp_pressure
_adsorp_amount_absolute
1.0 0.0
10.0 0.29735032714900006
101.0 3.5257253076310007
1013.0 42.478618164461004
10130.0 820.89929602812
3.0 0.0
30.0 1.2318799267580003
3039.0 188.39267155935903
30390.0 972.6329201115611
304.0 12.318799267679001
5.0 0.127435854492
50.0 1.4867516357450004
5065.0 583.783649434127
50650.0 1023.862133617896
507.0 20.941958755073003
7.0 0.297350327148
70.0 2.9735032714960004
709.0 29.565118242463992
7091.0 736.0270169355359
70910.0 1058.482207421927
