data_COF-103_n2_77K_LP_dreiding_trappe
_audit_aif_version 63df4e8
_exptl_method GCMC
_exptl_adsorptive n2
_exptl_temperature 77
_adsnt_material_id COF-103
_simltn_code RASPA 2.0.41
_simltn_date 2023-03-15T19:19:42.449999872
_simltn_size 1.1.1
_simltn_forcefield_adsorptive trappe
_simltn_forcefield_adsorbent dreiding
_units_temperature K
_units_pressure Pa
_units_loading cm^3/g

loop_
_adsorp_pressure
_adsorp_amount_absolute
1.0 1.7416233447310001
10.0 20.347258100769
101.0 727.913600866122
1013.0 1246.4076141814821
10130.0 1355.6201414823147
3.0 5.52222036136
30.0 79.64740905835399
3039.0 1290.075633654539
30390.0 1405.4900392073719
304.0 1111.070736709522
5.0 9.047945669015
50.0 146.42379681288298
5065.0 1323.4638275317868
50650.0 1382.2967136895732
507.0 1192.4172904944578
7.0 14.570166030399001
70.0 334.1792890997799
709.0 1226.3152277896888
7091.0 1330.897585710575
70910.0 1410.6299520052714
