data_COF-103_n2_77K_LP_uff_mm3
_audit_aif_version 63df4e8
_exptl_method GCMC
_exptl_adsorptive n2
_exptl_temperature 77
_adsnt_material_id COF-103
_simltn_code RASPA 2.0.41
_simltn_date 2023-03-06T19:37:09.450000128
_simltn_size 1.1.1
_simltn_forcefield_adsorptive mm3
_simltn_forcefield_adsorbent uff
_units_temperature K
_units_pressure Pa
_units_loading cm^3/g

loop_
_adsorp_pressure
_adsorp_amount_absolute
1.0 1.146922690432
10.0 15.504695630019997
101.0 241.915730446582
1013.0 926.628576639447
10130.0 1190.718145767875
3.0 4.885041088898001
30.0 53.692973359873
3039.0 1052.917508442381
30390.0 1269.940768644589
304.0 715.552322980265
5.0 8.155894687557002
50.0 97.44595006926002
5065.0 1117.3575721978618
50650.0 1304.7732355394392
507.0 823.9152779178022
7.0 11.299312431731003
70.0 139.584739288399
709.0 877.0560292415311
7091.0 1160.7282413437738
70910.0 1309.658276628347
