data_COF-103_n2_77K_LP_dreiding_dreiding
_audit_aif_version 63df4e8
_exptl_method GCMC
_exptl_adsorptive n2
_exptl_temperature 77
_adsnt_material_id COF-103
_simltn_code RASPA 2.0.41
_simltn_date 2023-03-06T19:19:50.399999488
_simltn_size 1.1.1
_simltn_forcefield_adsorptive dreiding
_simltn_forcefield_adsorbent dreiding
_units_temperature K
_units_pressure Pa
_units_loading cm^3/g

loop_
_adsorp_pressure
_adsorp_amount_absolute
1.0 0.72213650879
10.0 7.391279560598
101.0 141.241405396819
1013.0 1297.169562888011
10130.0 1435.2250719224912
3.0 1.9540164355570002
30.0 24.212812353737
3039.0 1352.9439885379409
30390.0 1467.0840355458242
304.0 1176.74268039177
5.0 3.6956397802880008
50.0 44.05032703654099
5065.0 1373.800990056683
50650.0 1476.9815535781524
507.0 1239.186249093519
7.0 5.819570688515
70.0 72.171172261407
709.0 1272.6169215889538
7091.0 1424.095673963404
70910.0 1495.289838007033
