data_COF-103_n2_77K_LP_dreiding_uff
_audit_aif_version 63df4e8
_exptl_method GCMC
_exptl_adsorptive n2
_exptl_temperature 77
_adsnt_material_id COF-103
_simltn_code RASPA 2.0.41
_simltn_date 2023-03-06T19:27:07.650000128
_simltn_size 1.1.1
_simltn_forcefield_adsorptive uff
_simltn_forcefield_adsorbent dreiding
_units_temperature K
_units_pressure Pa
_units_loading cm^3/g

loop_
_adsorp_pressure
_adsorp_amount_absolute
1.0 0.9345295996100002
10.0 6.754100288129
101.0 102.11859806734901
1013.0 1171.347895884885
10130.0 1382.4666281622444
3.0 2.038973671881
30.0 24.680077153547007
3039.0 1274.4010235518558
30390.0 1433.058662396097
304.0 920.8939631872449
5.0 3.3133322168110015
50.0 42.691011255278006
5065.0 1322.7416910230063
50650.0 1437.6463531578722
507.0 1055.8485330957249
7.0 5.352305888702
70.0 64.057756191997
709.0 1123.432014595373
7091.0 1337.8640790895543
70910.0 1470.1424960536613
