data_COF-103_n2_77K_LP_dreiding_mm3
_audit_aif_version 63df4e8
_exptl_method GCMC
_exptl_adsorptive n2
_exptl_temperature 77
_adsnt_material_id COF-103
_simltn_code RASPA 2.0.41
_simltn_date 2023-03-06T19:23:23.949999872
_simltn_size 1.1.1
_simltn_forcefield_adsorptive mm3
_simltn_forcefield_adsorbent dreiding
_units_temperature K
_units_pressure Pa
_units_loading cm^3/g

loop_
_adsorp_pressure
_adsorp_amount_absolute
1.0 0.764615126955
10.0 7.518715415089
101.0 89.205098145357
1013.0 813.0832302858599
10130.0 1101.1732186772049
3.0 2.6336743261820006
30.0 24.382726826398
3039.0 967.1956569865079
30390.0 1206.605148961393
304.0 433.664212840935
5.0 3.865554252947001
50.0 38.825457002313
5065.0 1032.570250341605
50650.0 1233.791464586638
507.0 648.4785848985839
7.0 5.4797417431960005
70.0 60.149723320866
709.0 734.2004363544611
7091.0 1069.6965626173412
70910.0 1247.3846223992682
