data_COF-103_n2_77K_LP_mm3_uff
_audit_aif_version 63df4e8
_exptl_method GCMC
_exptl_adsorptive n2
_exptl_temperature 77
_adsnt_material_id COF-103
_simltn_code RASPA 2.0.41
_simltn_date 2023-03-06T19:33:18.249999872
_simltn_size 1.1.1
_simltn_forcefield_adsorptive uff
_simltn_forcefield_adsorbent mm3
_units_temperature K
_units_pressure Pa
_units_loading cm^3/g

loop_
_adsorp_pressure
_adsorp_amount_absolute
1.0 0.042478618164000004
10.0 0.297350327148
101.0 4.077947343772001
1013.0 47.95835990767
10130.0 1152.27499632904
3.0 0.042478618164000004
30.0 0.8920509814470001
3039.0 972.5479628752249
30390.0 1266.415043336939
304.0 11.809055849711
5.0 0.254871708984
50.0 1.996495053717
5065.0 1064.726564292094
50650.0 1288.9711895822659
507.0 22.471189008995
7.0 0.16991447265600002
70.0 2.4212812353590003
709.0 29.650075478794
7091.0 1102.999799258274
70910.0 1307.8741746654441
