data_COF-103_n2_77K_LP_uff_uff
_audit_aif_version 63df4e8
_exptl_method GCMC
_exptl_adsorptive n2
_exptl_temperature 77
_adsnt_material_id COF-103
_simltn_code RASPA 2.0.41
_simltn_date 2023-03-06T19:39:25.300000256
_simltn_size 1.1.1
_simltn_forcefield_adsorptive uff
_simltn_forcefield_adsorbent uff
_units_temperature K
_units_pressure Pa
_units_loading cm^3/g

loop_
_adsorp_pressure
_adsorp_amount_absolute
1.0 1.9540164355489997
10.0 15.674610102674
101.0 742.823595841848
1013.0 1260.170686466764
10130.0 1428.3860143980048
3.0 4.290340434595001
30.0 56.41160492239501
3039.0 1363.3087713700681
30390.0 1481.017022303775
304.0 1101.8528765678302
5.0 7.306322324267999
50.0 109.382441773468
5065.0 1407.146705315785
50650.0 1478.51078383206
507.0 1175.340885992349
7.0 10.619654541103
70.0 224.159668053838
709.0 1231.242747496768
7091.0 1414.835335203555
70910.0 1508.8829958196511
