data_COF-103_n2_77K_LP_mm3_dreiding
_audit_aif_version 63df4e8
_exptl_method GCMC
_exptl_adsorptive n2
_exptl_temperature 77
_adsnt_material_id COF-103
_simltn_code RASPA 2.0.41
_simltn_date 2023-03-06T19:29:06.299999744
_simltn_size 1.1.1
_simltn_forcefield_adsorptive dreiding
_simltn_forcefield_adsorbent mm3
_units_temperature K
_units_pressure Pa
_units_loading cm^3/g

loop_
_adsorp_pressure
_adsorp_amount_absolute
1.0 0.042478618164000004
10.0 0.6796578906240001
101.0 4.120425961933002
1013.0 51.101777651837004
10130.0 1264.163676574225
3.0 0.042478618164000004
30.0 0.9345295996120001
3039.0 1166.505333414131
30390.0 1339.605702434294
304.0 11.851534467867
5.0 0.16991447265600002
50.0 1.954016435553
5065.0 1199.3413052552687
50650.0 1376.774493328192
507.0 20.814522900582002
7.0 0.254871708984
70.0 2.9735032714940006
709.0 30.499647842077003
7091.0 1250.9103477069082
70910.0 1374.0558617656677
