data_COF-103_n2_77K_LP_uff_trappe
_audit_aif_version 63df4e8
_exptl_method GCMC
_exptl_adsorptive n2
_exptl_temperature 77
_adsnt_material_id COF-103
_simltn_code RASPA 2.0.41
_simltn_date 2023-03-15T19:44:09.250000128
_simltn_size 1.1.1
_simltn_forcefield_adsorptive trappe
_simltn_forcefield_adsorbent uff
_units_temperature K
_units_pressure Pa
_units_loading cm^3/g

loop_
_adsorp_pressure
_adsorp_amount_absolute
1.0 5.564698979528001
10.0 54.797417432147
101.0 1031.1259773240179
1013.0 1303.2015266673632
10130.0 1412.541489822673
3.0 15.292302539188002
30.0 280.82614468522
3039.0 1355.1953553006595
30390.0 1427.9187495982012
304.0 1242.329666837693
5.0 25.529649516836002
50.0 753.82555794644
5065.0 1370.9549226396716
50650.0 1411.3520885140786
507.0 1254.7759019598789
7.0 33.897937295237995
70.0 910.0194369371502
709.0 1288.801275109613
7091.0 1409.907815496478
70910.0 1458.4608760584522
