data_mix_des
_audit_aif_version 63df4e8
_exptl_method GCMC
_exptl_adsorptive co2/n2
_exptl_temperature 298
_adsorp_pressure 1000000
_simltn_code RASPA 2.0.41
_simltn_forcefield_adsorptive uff
_simltn_forcefield_adsorbent mm3
_units_temperature K
_units_pressure Pa
_units_loading mol/kg
_units_composition_type co2/n2=15/85

loop_
_adsnt_material_id
_simltn_size
_adsorp_amount_co2_absolute
_adsorp_amount_n2_absolute
hnd_17-12-12_17-12-12_17-12-12_17-12-12_17-12-12_17-12-12_01-03-12_01-03-12_01-03-12_01-03-12_01-03-12_01-03-12_01-03-12_01-03-12_01-03-12_01-03-12 2.1.4 0.04691969122050001 0.01136849661225
hnb_17-12-12_17-12-12_02-03-12_02-03-12 2.2.4 0.202349963993875 0.008676568134499999
hnb_12-03-12_11-03-12_06-12-12_06-12-12 4.2.5 0.10386347256442502 0.011404316442225
ths-b_17-12-12_11-03-12_None_None 3.3.1 0.06298348707583082 0.013218756546779313
fss_17-12-12_17-12-12_17-12-12_17-12-12_02-03-12_02-03-12_02-03-12_02-03-12_02-03-12 1.1.3 0.10783732206780533 0.00743702741625665
twt-b_12-03-12_17-12-12_None_None 3.3.3 0.34304448287419825 0.022545158921467197
cqb_31-03-12_31-03-12_06-12-12_06-12-12_06-12-12_06-12-12_06-12-12 2.1.4 0.1334997086085 0.0137319885885
ths-z_17-12-12_02-03-12_02-03-12 6.6.1 0.09606205392663927 0.010191918364093087
twt-b_17-12-12_12-03-12_None_None 3.3.3 0.32476479102757305 0.01797525652420716
twt-b_17-12-12_11-03-12_None_None 2.2.4 0.3872356817860001 0.027409754584249997
cry_17-12-12_17-12-12_17-12-12_02-03-12_02-03-12_02-03-12 1.1.3 0.14165824811708724 0.00991602828361068
fsv_12-03-12_12-03-12_12-03-12_12-03-12_12-03-12_06-12-12_06-12-12_06-12-12_06-12-12_06-12-12_06-12-12_06-12-12_06-12-12 1.1.3 0.2468843256244821 0.00844044004781251
ths-b-c_17-08-01_11-01-01_None_None 4.4.2 0.09128420828515628 0.00963870522265625
twt-b_11-03-12_17-12-12_None_None 2.2.4 0.35049494691775 0.034407989797250016
dhh_11-03-12_11-03-12_11-03-12_11-03-12_06-12-12_06-12-12_06-12-12_06-12-12_06-12-12_06-12-12 1.1.4 0.09199939455000004 0.013931336889
cqj_11-03-12_11-03-12_11-03-12_06-12-12_06-12-12_06-12-12 2.2.4 0.08650571639087502 0.015613611527250004
ths-b_33-11-02_11-01-02_None_None 4.4.2 0.17883641649312496 0.034662114432656245
hne_17-12-12_17-12-12_17-12-12_02-03-12_02-03-12_02-03-12_02-03-12_02-03-12 1.2.4 0.1366559481735 0.006894772895375
ths-b_11-01-02_33-11-02_None_None 4.4.2 0.1838599113384375 0.02813157113375
ths-b-c+_12-03-12_18-12-12_None_None 2.2.1 0.09958910146275 0.020255410467
zxd_17-12-12_17-12-12_02-03-12_02-03-12_02-03-12 1.1.2 0.19708204754699996 0.0088831530865
hcb_17-12-12_02-03-12 2.2.2 0.034706272544999986 0.020451910606875002
nob_17-12-12_17-12-12_02-03-12_02-03-12_02-03-12_02-03-12 1.6.1 0.10411886721538936 0.007437157563278701
fxt_11-03-12_06-12-12_06-12-12_06-12-12 1.2.4 0.07215381086849999 0.013405626063000005
fes_17-12-12_02-03-12_01-03-12 1.2.4 0.08475694881825 0.012680173445250001
hnf_17-12-12_17-12-12_17-12-12_17-12-12_02-03-12_02-03-12_02-03-12_02-03-12 1.1.3 0.2390876276206726 0.008263348639610679
ths-b_17-12-12_12-03-12_None_None 3.3.1 0.12886923640999984 0.019193244587412558
twt-b_11-05-09_11-03-09_None_None 2.2.9 0.5319329236969956 0.011401320957380638
cry_11-03-12_11-03-12_11-03-12_06-12-12_06-12-12_06-12-12 2.2.4 0.12526937970100002 0.013349299905187502
hnc_11-03-12_11-03-12_11-03-12_11-03-12_06-12-12_06-12-12_06-12-12_06-12-12_06-12-12_06-12-12_06-12-12 1.1.3 0.0651881056242422 0.00893704198513392
bor_17-12-12_30-03-12_None 2.2.2 0.13113150939999998 0.022948014145
eta-c_17-12-12_02-03-12_02-03-12 1.4.2 0.20989031491499996 0.00702388849125
ofp_17-12-12_30-03-12_30-03-12_None_None 2.2.1 0.20407341150375 0.0213088702775
hna_17-12-12_17-12-12_02-03-12_02-03-12_02-03-12 1.1.3 0.13331617172166368 0.00964055964054876
ths-b_11-03-12_17-12-12_None_None 3.3.1 0.0645386349048637 0.01788420003387789
dhh_17-12-12_17-12-12_17-12-12_17-12-12_02-03-12_02-03-12_02-03-12_02-03-12_02-03-12_02-03-12 1.1.3 0.1189929261046018 0.00688611284847794
ths-b-c_11-01-01_17-08-01_None_None 4.4.2 0.09355213892578124 0.0079377572421875
hnc_17-12-12_17-12-12_17-12-12_17-12-12_02-03-12_02-03-12_02-03-12_02-03-12_02-03-12_02-03-12_02-03-12 1.1.4 0.09497743336774997 0.00790187455425
ctn_17-12-12_30-03-12_None 2.2.2 0.10531499351900003 0.022948014152000002
bey_16-03-12_31-03-12_06-12-12_06-12-12_06-12-12 1.2.4 0.07610298049825 0.009231776794500001
