data_n2_des
_audit_aif_version 63df4e8
_exptl_method GCMC
_exptl_adsorptive n2
_exptl_temperature 298
_adsorp_pressure 10000
_simltn_code RASPA 2.0.41
_simltn_forcefield_adsorptive uff
_simltn_forcefield_adsorbent mm3
_units_temperature K
_units_pressure Pa
_units_loading mol/kg

loop_
_adsnt_material_id
_simltn_size
_adsorp_amount_absolute
hnd_17-12-12_17-12-12_17-12-12_17-12-12_17-12-12_17-12-12_01-03-12_01-03-12_01-03-12_01-03-12_01-03-12_01-03-12_01-03-12_01-03-12_01-03-12_01-03-12 2.1.4 0.012354204411
hnb_17-12-12_17-12-12_02-03-12_02-03-12 2.2.4 0.0097611391513125
hnb_12-03-12_11-03-12_06-12-12_06-12-12 4.2.5 0.01362394850145
ths-b_17-12-12_11-03-12_None_None 3.3.1 0.02021692177742718
fss_17-12-12_17-12-12_17-12-12_17-12-12_02-03-12_02-03-12_02-03-12_02-03-12_02-03-12 1.1.3 0.009502843919330407
twt-b_12-03-12_17-12-12_None_None 3.3.3 0.023154276339058647
cqb_31-03-12_31-03-12_06-12-12_06-12-12_06-12-12_06-12-12_06-12-12 2.1.4 0.018687894244500004
ths-z_17-12-12_02-03-12_02-03-12 6.6.1 0.009778690609138859
twt-b_17-12-12_12-03-12_None_None 3.3.3 0.021022077475940756
twt-b_17-12-12_11-03-12_None_None 2.2.4 0.0314920584585
cry_17-12-12_17-12-12_17-12-12_02-03-12_02-03-12_02-03-12 1.1.3 0.010152115931726999
fsv_12-03-12_12-03-12_12-03-12_12-03-12_12-03-12_06-12-12_06-12-12_06-12-12_06-12-12_06-12-12_06-12-12_06-12-12_06-12-12 1.1.3 0.011957310582812509
ths-b-c_17-08-01_11-01-01_None_None 4.4.2 0.00963870522265625
twt-b_11-03-12_17-12-12_None_None 2.2.4 0.02974249965525
dhh_11-03-12_11-03-12_11-03-12_11-03-12_06-12-12_06-12-12_06-12-12_06-12-12_06-12-12_06-12-12 1.1.4 0.014719903127999999
cqj_11-03-12_11-03-12_11-03-12_06-12-12_06-12-12_06-12-12 2.2.4 0.017427313876375004
ths-b_33-11-02_11-01-02_None_None 4.4.2 0.034662114432656245
hne_17-12-12_17-12-12_17-12-12_02-03-12_02-03-12_02-03-12_02-03-12_02-03-12 1.2.4 0.009296323005
ths-b_11-01-02_33-11-02_None_None 4.4.2 0.03667151237078125
ths-b-c+_12-03-12_18-12-12_None_None 2.2.1 0.01631685843175
zxd_17-12-12_17-12-12_02-03-12_02-03-12_02-03-12 1.1.2 0.010329247775
hcb_17-12-12_02-03-12 2.2.2 0.022311175207500002
nob_17-12-12_17-12-12_02-03-12_02-03-12_02-03-12_02-03-12 1.6.1 0.01019169525439665
fxt_11-03-12_06-12-12_06-12-12_06-12-12 1.2.4 0.0174798849645
fes_17-12-12_02-03-12_01-03-12 1.2.4 0.011011729570875
hnf_17-12-12_17-12-12_17-12-12_17-12-12_02-03-12_02-03-12_02-03-12_02-03-12 1.1.3 0.0121195956333452
ths-b_17-12-12_12-03-12_None_None 3.3.1 0.024677028755244718
twt-b_11-05-09_11-03-09_None_None 2.2.9 0.0121785904738563
cry_11-03-12_11-03-12_11-03-12_06-12-12_06-12-12_06-12-12 2.2.4 0.015546020142750003
hnc_11-03-12_11-03-12_11-03-12_11-03-12_06-12-12_06-12-12_06-12-12_06-12-12_06-12-12_06-12-12_06-12-12 1.1.3 0.01393130008924218
bor_17-12-12_30-03-12_None 2.2.2 0.019669726410000005
eta-c_17-12-12_02-03-12_02-03-12 1.4.2 0.011981927426249999
ofp_17-12-12_30-03-12_30-03-12_None_None 2.2.1 0.02212844221125
hna_17-12-12_17-12-12_02-03-12_02-03-12_02-03-12 1.1.3 0.01129326407474342
ths-b_11-03-12_17-12-12_None_None 3.3.1 0.019439347862910752
dhh_17-12-12_17-12-12_17-12-12_17-12-12_02-03-12_02-03-12_02-03-12_02-03-12_02-03-12_02-03-12 1.1.3 0.01156872445440712
ths-b-c_11-01-01_17-08-01_None_None 4.4.2 0.006803791921875
hnc_17-12-12_17-12-12_17-12-12_17-12-12_02-03-12_02-03-12_02-03-12_02-03-12_02-03-12_02-03-12_02-03-12 1.1.4 0.009296323005
ctn_17-12-12_30-03-12_None 2.2.2 0.02274312116849999
bey_16-03-12_31-03-12_06-12-12_06-12-12_06-12-12 1.2.4 0.015149582431999998
