data_co2_ads
_audit_aif_version 63df4e8
_exptl_method GCMC
_exptl_adsorptive co2
_exptl_temperature 298
_adsorp_pressure 1000000
_simltn_code RASPA 2.0.41
_simltn_date 2023-03-21T12:10:15.110280192
_simltn_forcefield_adsorptive uff
_simltn_forcefield_adsorbent mm3
_units_temperature K
_units_pressure Pa
_units_loading mol/kg
_units_enthalpy kJ/mol

loop_
_adsnt_material_id
_simltn_size
_adsorp_amount_absolute
_adsorp_enthalpy
abf_28-04-05_28-04-05_16-04-05_03-02-05_03-02-05_03-02-05 1.1.1 27.87914185071 -5.153827275280117
abf_30-02-06_30-02-06_14-02-06_03-02-06_03-02-06_02-02-06 1.1.1 25.417258601103004 -4.73463798127951
abf_30-02-06_30-02-06_14-02-06_04-02-06_04-02-06_02-02-06 1.1.1 22.077654207408 -5.617297183101351
abr_28-01-01_28-01-01_29-01-01_06-08-01_06-08-01_06-08-01 1.1.1 8.726744690800002 -7.610289918860782
abr_28-01-01_29-01-01_28-01-01_07-08-01_07-08-01_07-08-01 1.1.1 8.362303062480002 -7.675911485314606
abr_28-02-06_29-02-06_29-02-06_04-02-06_04-02-06_04-02-06 1.1.1 15.571260207052 -6.7183765067795775
abr_28-02-08_29-02-08_28-02-08_07-10-08_07-10-08_07-10-08 1.1.1 8.97337365067 -9.696035723616715
abr_28-03-12_28-03-12_29-03-12_06-12-12_06-12-12_06-12-12 1.1.1 11.541737112450996 -10.013912021843206
abr_28-03-12_28-03-12_29-03-12_07-12-12_07-12-12_07-12-12 1.1.1 11.135550000365996 -11.436903492458924
abr_28-03-12_29-03-12_29-03-12_09-12-12_09-12-12_09-12-12 1.1.1 11.590270123578 -11.954351190611748
abr_29-01-01_29-01-01_28-01-01_09-08-01_09-08-01_09-08-01 1.1.1 9.103191484465 -8.851068386973978
abr_29-01-01_29-01-01_29-01-01_06-08-01_06-08-01_07-08-01 1.1.1 9.044881274272 -7.678449865873502
abr_29-01-01_29-01-01_29-01-01_06-08-01_07-08-01_06-08-01 1.1.1 9.11330416445 -7.674580112338526
abr_29-01-01_29-01-01_29-01-01_06-08-01_07-08-01_07-08-01 1.1.1 8.922059721624 -7.766339366959631
abr_29-01-01_29-01-01_29-01-01_07-08-01_06-08-01_06-08-01 1.1.1 9.227228111448 -8.212130009852553
abr_29-01-01_29-01-01_29-01-01_07-08-01_06-08-01_07-08-01 1.1.1 9.07765170582 -8.83743166556782
abr_29-01-01_29-01-01_29-01-01_07-08-01_07-08-01_06-08-01 1.1.1 9.049498881828 -8.223578334669105
abr_29-01-01_29-01-01_29-01-01_08-08-01_08-08-01_09-08-01 1.1.1 9.65680702446 -7.995602467156995
abr_29-01-01_29-01-01_29-01-01_08-08-01_09-08-01_08-08-01 1.1.1 9.641291106594002 -8.68268199431589
abr_29-01-01_29-01-01_29-01-01_08-08-01_09-08-01_09-08-01 1.1.1 9.444777563088 -9.520437352534444
abr_29-01-01_29-01-01_29-01-01_09-08-01_08-08-01_08-08-01 1.1.1 9.858702399113 -8.039134579166593
abr_29-01-01_29-01-01_29-01-01_09-08-01_08-08-01_09-08-01 1.1.1 9.816039763572 -8.022340669983452
abr_29-01-01_29-01-01_29-01-01_09-08-01_09-08-01_08-08-01 1.1.1 9.425209675248 -9.036322973660408
abr_29-01-01_29-01-01_29-01-01_09-08-01_09-08-01_09-08-01 1.1.1 9.341335784627 -9.52911254006196
abr_29-02-04_29-02-04_29-02-04_02-03-04_02-03-04_02-03-04 1.1.1 9.313907879652 -8.563146849410694
abr_29-02-06_29-02-06_29-02-06_04-02-06_03-02-06_03-02-06 1.1.1 15.80254925628 -5.716461651635915
abr_29-02-06_29-02-06_29-02-06_04-02-06_03-02-06_04-02-06 1.1.1 15.129444743127 -6.425629923969881
abr_29-02-08_28-02-08_29-02-08_06-10-08_06-10-08_06-10-08 1.1.1 9.354080914955 -8.45594537520248
abr_29-02-08_29-02-08_29-02-08_06-10-08_06-10-08_07-10-08 1.1.1 9.172319752287 -8.086686178525726
abr_29-02-08_29-02-08_29-02-08_06-10-08_07-10-08_06-10-08 1.1.1 9.074975384547 -8.789850862760236
abr_29-02-08_29-02-08_29-02-08_06-10-08_07-10-08_07-10-08 1.1.1 9.15707515582 -8.807298340471553
abr_29-02-08_29-02-08_29-02-08_07-10-08_06-10-08_06-10-08 1.1.1 9.301346902784 -8.17756664667383
abr_29-02-08_29-02-08_29-02-08_07-10-08_06-10-08_07-10-08 1.1.1 9.386952959559 -7.639321719037577
abr_29-02-08_29-02-08_29-02-08_07-10-08_07-10-08_06-10-08 1.1.1 9.032263691121 -9.382118589235334
abr_29-02-08_29-02-08_29-02-08_08-10-08_08-10-08_09-10-08 1.1.1 10.007312005328 -8.821508212489412
abr_29-02-08_29-02-08_29-02-08_08-10-08_09-10-08_08-10-08 1.1.1 9.985340161400002 -9.91572235933855
abr_29-02-08_29-02-08_29-02-08_08-10-08_09-10-08_09-10-08 1.1.1 9.723757010795 -10.312335108800855
abr_29-02-08_29-02-08_29-02-08_09-10-08_08-10-08_08-10-08 1.1.1 10.065148702249 -9.462237829584502
abr_29-02-08_29-02-08_29-02-08_09-10-08_08-10-08_09-10-08 1.1.1 9.93225728744 -9.608314574624709
abr_29-02-08_29-02-08_29-02-08_09-10-08_09-10-08_08-10-08 1.1.1 9.897878779289998 -11.43020228365596
abr_29-02-08_29-02-08_29-02-08_09-10-08_09-10-08_09-10-08 1.1.1 9.806623643052 -10.180686149741774
abr_29-02-08_29-02-08_29-02-08_10-10-08_10-10-08_10-10-08 1.1.1 11.656671021329998 -7.745284093626683
abr_29-03-12_29-03-12_29-03-12_06-12-12_06-12-12_07-12-12 1.1.1 11.737015006055996 -10.54278931691383
abr_29-03-12_29-03-12_29-03-12_06-12-12_07-12-12_06-12-12 1.1.1 11.486444525226002 -10.73377749035241
abr_29-03-12_29-03-12_29-03-12_06-12-12_07-12-12_07-12-12 1.1.1 11.25195744975 -10.053769846257673
abr_29-03-12_29-03-12_29-03-12_07-12-12_06-12-12_06-12-12 1.1.1 11.736367495897 -11.679778343876654
abr_29-03-12_29-03-12_29-03-12_07-12-12_06-12-12_07-12-12 1.1.1 11.733912877632 -12.058276066767244
abr_29-03-12_29-03-12_29-03-12_07-12-12_07-12-12_06-12-12 1.1.1 11.465439837267002 -11.252883312508876
abr_29-03-12_29-03-12_29-03-12_08-12-12_08-12-12_09-12-12 1.1.1 11.948496736590002 -11.426355232199208
abr_29-03-12_29-03-12_29-03-12_08-12-12_09-12-12_08-12-12 1.1.1 11.555366294186 -11.32719219635738
abr_29-03-12_29-03-12_29-03-12_08-12-12_09-12-12_09-12-12 1.1.1 11.806023150305998 -11.531633659046063
abr_29-03-12_29-03-12_29-03-12_09-12-12_08-12-12_08-12-12 1.1.1 12.167275431560002 -9.372137813256728
abr_29-03-12_29-03-12_29-03-12_09-12-12_08-12-12_09-12-12 1.1.1 12.117427271493002 -12.151115387960813
abr_29-03-12_29-03-12_29-03-12_09-12-12_09-12-12_08-12-12 1.1.1 11.654462817162 -10.749342360411273
abr_29-05-09_29-05-09_29-05-09_03-03-09_03-03-09_03-03-09 1.1.1 17.05960066336 -6.5970571453535305
abr_30-01-01_30-01-01_30-01-01_08-08-01_09-08-01_09-08-01 1.1.1 8.261531714298998 -13.322928434863298
abr_30-02-08_30-02-08_30-02-08_08-10-08_09-10-08_09-10-08 1.1.1 9.579807791315998 -12.875742178420914
abr_30-03-12_30-03-12_30-03-12_08-12-12_09-12-12_09-12-12 1.1.1 11.475140309584 -16.162725622103185
acs-a_29-02-08_10-10-08_10-10-08_10-10-08 1.1.1 14.973726222594005 -5.855006192516504
acs-a_29-05-09_05-03-09_05-03-09_05-03-09 1.1.1 29.664344960913 -5.500784543296212
acs-a_30-01-01_09-08-01_09-08-01_08-08-01 1.1.1 8.996602449652999 -11.20757561401886
acs-f_12-03-09_01-05-09_01-05-09_01-05-09 3.2.2 2.1470113267038093 -28.737082686591283
acs-f_14-01-01_10-08-01_10-08-01_10-08-01 1.1.1 7.676479094787998 -9.642274381222226
acs-f_14-02-04_02-03-04_02-03-04_02-03-04 1.1.1 7.333846308576 -10.092474549058588
acs-f_14-02-06_None_None_None 1.1.2 9.724686195081 -13.7944417169418
acs-f_14-03-12_09-12-12_09-12-12_09-12-12 1.1.1 8.517740111874 -12.614436417344791
acs-f_16-01-01_06-08-01_06-08-01_06-08-01 1.1.1 7.035470600688 -10.491227826769906
acs-f_16-02-06_03-02-06_04-02-06_04-02-06 1.1.1 8.94810485912 -10.226199576242529
acs-f_16-02-06_05-02-06_05-02-06_05-02-06 1.1.1 11.891092718224002 -7.883098876621534
acs-f_17-08-01_05-01-01_05-01-01_05-01-01 2.1.1 10.425801604922 -12.245265344023164
acs-f_17-12-12_01-03-12_01-03-12_01-03-12 2.2.1 20.778194676943 -23.65377034009467
acs-f_33-11-02_03-01-02_03-01-02_03-01-02 2.2.1 10.903925991451496 -16.080910869456947
acs-f_33-11-02_04-01-02_04-01-02_03-01-02 2.2.1 13.186900274611002 -17.263089919277643
acs-f_36-11-11_03-07-11_04-07-11_04-07-11 2.2.1 10.627833695377 -16.489648405879606
acs-g_11-03-12_09-12-12_09-12-12_09-12-12 1.1.2 14.2483877859375 -16.083332280961926
acs-g_35-11-03_02-01-03_02-01-03_01-01-03 1.1.5 10.5561228762486 -20.787928437478666
aea-a_28-02-08_28-02-08_16-02-08_16-02-08_07-10-08_07-10-08_07-10-08_07-10-08_07-10-08_07-10-08_07-10-08_07-10-08_07-10-08 1.1.1 11.623639551348 -7.886638654236957
aea-a_28-04-05_28-04-05_16-04-05_16-04-05_02-02-05_02-02-05_02-02-05_02-02-05_02-02-05_02-02-05_02-02-05_02-02-05_02-02-05 1.1.1 16.77752637818 -6.931765298842918
aea-a_28-04-05_28-04-05_16-04-05_16-04-05_03-02-05_03-02-05_03-02-05_03-02-05_03-02-05_03-02-05_03-02-05_03-02-05_03-02-05 1.1.1 25.51824556128 -6.257894752296458
aea-a_30-01-01_30-01-01_11-01-01_11-01-01_08-08-01_08-08-01_08-08-01_08-08-01_08-08-01_08-08-01_08-08-01_08-08-01_08-08-01 1.1.1 9.340191531882 -9.328159873658633
aea-a_30-01-01_30-01-01_11-01-01_11-01-01_10-08-01_10-08-01_10-08-01_10-08-01_10-08-01_10-08-01_10-08-01_10-08-01_10-08-01 1.1.1 11.091210907769998 -7.753030488041255
aea-a_30-02-06_30-02-06_11-02-06_11-02-06_02-02-06_02-02-06_02-02-06_02-02-06_02-02-06_02-02-06_02-02-06_02-02-06_02-02-06 1.1.1 10.143058562016 -7.203985236189976
aea-a_30-02-08_30-02-08_11-02-08_11-02-08_06-10-08_06-10-08_06-10-08_06-10-08_06-10-08_06-10-08_06-10-08_06-10-08_06-10-08 1.1.1 9.07073382312 -9.439998977999805
aea-a_30-05-09_30-05-09_11-05-09_11-05-09_04-03-09_04-03-09_04-03-09_04-03-09_04-03-09_04-03-09_04-03-09_04-03-09_04-03-09 1.1.1 18.469665812799995 -7.044747534842215
afi_28-02-06_04-02-06_04-02-06_03-02-06_04-02-06 1.1.1 14.875954657694995 -6.283739602201086
afi_30-03-09_03-05-09_03-05-09_03-05-09_03-05-09 1.1.1 14.980108032200002 -7.903067736162356
afw-a_28-04-05_28-04-05_02-02-05_02-02-05_02-02-05_02-02-05_02-02-05_02-02-05 1.1.1 20.912590548968 -7.368753490796535
afw_28-02-04_02-03-04_01-03-04 1.1.1 9.255124273974 -8.13676775051437
afw_29-02-04_01-03-04_02-03-04 1.1.1 9.66148003364 -7.160395688388568
afw_29-02-08_06-10-08_06-10-08 1.1.1 9.578179342584 -8.802709436174235
afw_29-03-12_06-12-12_06-12-12 1.1.1 11.978148856142004 -11.189608271438434
afw_30-05-09_01-03-09_02-03-09 1.1.1 10.443603389094 -10.019512478333318
afx_29-03-12_29-03-12_08-12-12_08-12-12_08-12-12_08-12-12_08-12-12_08-12-12_08-12-12 1.1.1 13.183654358232005 -8.468894666227698
afy_30-01-01_30-01-01_09-08-01_09-08-01_09-08-01_09-08-01_09-08-01 1.1.1 9.127133481226002 -12.458120087144222
afy_30-03-12_30-03-12_09-12-12_09-12-12_09-12-12_09-12-12_09-12-12 1.1.1 11.580830938759998 -15.141487420792249
agw-a_28-02-04_16-02-04_16-02-04_16-02-04_02-03-04_02-03-04_02-03-04_02-03-04_02-03-04_02-03-04_02-03-04_02-03-04 1.1.1 18.272243303943 -4.442879129758825
agw-a_28-02-06_16-02-06_16-02-06_16-02-06_01-02-06_01-02-06_01-02-06_01-02-06_01-02-06_01-02-06_01-02-06_01-02-06 1.1.1 31.542802144355 -4.064608883032085
agw-a_28-02-06_16-02-06_16-02-06_16-02-06_03-02-06_03-02-06_03-02-06_03-02-06_03-02-06_03-02-06_03-02-06_03-02-06 1.1.1 43.86554065593301 -4.245145434575152
agw-a_28-02-08_16-02-08_16-02-08_16-02-08_06-10-08_06-10-08_06-10-08_06-10-08_06-10-08_06-10-08_06-10-08_06-10-08 1.1.1 18.911494398797 -5.194521576905939
agw-a_28-02-08_16-02-08_16-02-08_16-02-08_09-10-08_09-10-08_09-10-08_09-10-08_09-10-08_09-10-08_09-10-08_09-10-08 1.1.1 17.593833794625 -5.008698055316853
agw-a_28-03-04_16-03-04_16-03-04_16-03-04_01-02-04_01-02-04_01-02-04_01-02-04_01-02-04_01-02-04_01-02-04_01-02-04 1.1.1 21.810836200046992 -5.470073893778212
agw-a_28-03-12_16-03-12_16-03-12_16-03-12_09-12-12_09-12-12_09-12-12_09-12-12_09-12-12_09-12-12_09-12-12_09-12-12 1.1.1 18.18991093446 -5.832216949633483
agw-a_30-03-09_11-03-09_11-03-09_11-03-09_02-05-09_02-05-09_02-05-09_02-05-09_02-05-09_02-05-09_02-05-09_02-05-09 1.1.1 19.285864213616 -5.874082676639287
agw-a_30-03-09_12-03-09_12-03-09_12-03-09_01-05-09_01-05-09_01-05-09_01-05-09_01-05-09_01-05-09_01-05-09_01-05-09 1.1.1 21.989549419496008 -7.105516989273131
agw-a_30-03-12_12-03-12_12-03-12_12-03-12_06-12-12_06-12-12_06-12-12_06-12-12_06-12-12_06-12-12_06-12-12_06-12-12 1.1.1 15.854541927665 -11.131910470989563
alb-x-d_28-01-01_29-01-01_28-01-01_07-08-01_07-08-01_07-08-01_07-08-01 1.1.1 8.523440384999999 -7.864713230954729
alb-x-d_28-02-08_29-02-08_28-02-08_10-10-08_10-10-08_10-10-08_10-10-08 1.1.1 11.896748564512004 -7.688947931646192
alb-x-d_28-03-12_29-03-12_28-03-12_09-12-12_09-12-12_09-12-12_09-12-12 1.1.1 11.483430335034 -12.00670688234618
alb-x-d_29-02-06_29-02-06_29-02-06_01-02-06_01-02-06_02-02-06_02-02-06 1.1.1 12.962524878255 -6.197418553569624
alb-x-d_29-02-06_29-02-06_29-02-06_03-02-06_03-02-06_04-02-06_04-02-06 1.1.1 17.028090651042 -6.213207039094248
alb-x-d_29-02-06_29-02-06_29-02-06_03-02-06_04-02-06_04-02-06_04-02-06 1.1.1 16.6996037628 -5.560610249669356
alb-x-d_29-02-06_29-02-06_29-02-06_04-02-06_03-02-06_04-02-06_03-02-06 1.1.1 17.461167608358 -6.059790758536433
alb-x-d_29-03-12_28-03-12_29-03-12_06-12-12_06-12-12_06-12-12_06-12-12 1.1.1 11.901109445813 -10.08619357271822
ana-b_28-02-04_30-02-04_02-03-04_02-03-04_02-03-04_02-03-04 1.1.1 7.419269328785999 -8.785700954365657
ana-b_28-02-06_30-02-06_05-02-06_05-02-06_05-02-06_05-02-06 1.1.1 17.75131193388 -5.723454024047233
ana-b_28-02-08_29-02-08_09-10-08_09-10-08_09-10-08_09-10-08 1.1.1 9.70034818176 -9.31160283807553
ana-b_28-02-08_30-02-08_09-10-08_09-10-08_09-10-08_09-10-08 1.1.1 8.90100248427 -12.292550748438869
ana-b_28-03-12_30-03-12_06-12-12_06-12-12_06-12-12_06-12-12 1.1.1 11.502664944809998 -12.558076853889547
ana-b_28-03-12_30-03-12_07-12-12_07-12-12_07-12-12_07-12-12 1.1.1 10.509673746 -13.612437598014695
ana-b_28-03-12_30-03-12_09-12-12_09-12-12_09-12-12_09-12-12 1.1.1 10.736692290632 -12.590918992977224
ana-b_28-04-05_30-04-05_02-02-05_02-02-05_02-02-05_02-02-05 1.1.1 12.48884677899 -9.59385947636532
ana-b_28-05-09_30-05-09_02-03-09_02-03-09_02-03-09_02-03-09 1.1.1 10.81674589051 -8.751641724087234
ana-b_28-05-09_30-05-09_03-03-09_03-03-09_03-03-09_03-03-09 1.1.1 15.011651176 -7.2320743560982255
ana-b_29-01-01_30-01-01_10-08-01_10-08-01_10-08-01_10-08-01 1.1.1 9.837772000899998 -7.407521795021066
ana-b_29-02-04_30-02-04_05-03-04_05-03-04_05-03-04_05-03-04 1.1.1 15.249010240175004 -7.17250045141898
ana-b_29-02-05_30-02-05_01-04-05_01-04-05_01-04-05_01-04-05 1.1.1 14.271813874449002 -9.674270398272988
ana-b_29-02-05_30-02-05_03-04-05_03-04-05_03-04-05_03-04-05 1.1.1 16.315092650475 -8.631058014445458
ana-b_29-03-04_30-03-04_03-02-04_03-02-04_03-02-04_03-02-04 1.1.1 11.2918932363 -8.12172200608603
ana-b_29-03-09_30-03-09_02-05-09_02-05-09_02-05-09_02-05-09 1.1.1 11.479958051361995 -10.1335641281289
ana-b_29-03-09_30-03-09_03-05-09_03-05-09_03-05-09_03-05-09 1.1.1 15.619982425502 -6.7277477129069565
ana-b_29-03-09_30-03-09_04-05-09_04-05-09_04-05-09_04-05-09 1.1.1 14.800424297339998 -7.525665726039939
ana-b_29-03-12_28-03-12_10-12-12_10-12-12_10-12-12_10-12-12 1.1.1 13.526420477578997 -8.884376043230302
ana-b_29-03-12_30-03-12_09-12-12_09-12-12_09-12-12_09-12-12 1.1.1 10.850258146671996 -12.268952665854984
ana-b_29-05-09_30-05-09_05-03-09_05-03-09_05-03-09_05-03-09 1.1.1 19.537321415039997 -5.95480084284637
ana-b_30-01-01_28-01-01_09-08-01_09-08-01_09-08-01_09-08-01 1.1.1 8.208295937326001 -11.09467999296876
ana-b_30-01-01_28-01-01_10-08-01_10-08-01_10-08-01_10-08-01 1.1.1 9.30864035568 -7.810935154039942
ana-b_30-02-05_28-02-05_03-04-05_03-04-05_03-04-05_03-04-05 1.1.1 15.727715579205 -7.542357562737425
ana-b_30-02-05_29-02-05_02-04-05_02-04-05_02-04-05_02-04-05 1.1.1 12.188239999848 -10.093743034907622
ana-b_30-02-05_29-02-05_04-04-05_04-04-05_04-04-05_04-04-05 1.1.1 15.322332586473 -8.635468033373728
ana-b_30-02-08_28-02-08_06-10-08_06-10-08_06-10-08_06-10-08 1.1.1 7.911278686674001 -9.005733531092893
ana-b_30-02-08_29-02-08_09-10-08_09-10-08_09-10-08_09-10-08 1.1.1 9.264848999226 -12.005939434170005
ana-b_30-03-04_28-03-04_03-02-04_03-02-04_03-02-04_03-02-04 1.1.1 10.928948060985 -7.650730554303804
ana-b_30-03-09_29-03-09_01-05-09_01-05-09_01-05-09_01-05-09 1.1.1 13.580942597775 -8.870460928595264
ana-b_30-03-12_28-03-12_10-12-12_10-12-12_10-12-12_10-12-12 1.1.1 12.392497992584 -10.257003395898968
ana-b_30-03-12_29-03-12_06-12-12_06-12-12_06-12-12_06-12-12 1.1.1 11.726649698623998 -12.705181674004836
ana-b_30-03-12_29-03-12_07-12-12_07-12-12_07-12-12_07-12-12 1.1.1 10.813010639456998 -13.652213016059882
ana-b_30-03-12_29-03-12_10-12-12_10-12-12_10-12-12_10-12-12 1.1.1 12.657719940018 -9.59093280761878
ana-b_30-04-05_28-04-05_01-02-05_01-02-05_01-02-05_01-02-05 1.1.1 14.183809356864002 -10.181924933423016
ana-b_30-04-05_28-04-05_04-02-05_04-02-05_04-02-05_04-02-05 1.1.1 15.69069918665 -9.518277649585311
ana-b_31-02-05_29-02-05_02-04-05_02-04-05_02-04-05_02-04-05 1.1.1 13.833008237118 -8.34132374230316
ana-b_31-02-05_29-02-05_04-04-05_04-04-05_04-04-05_04-04-05 1.1.1 17.485372459808 -8.715896403028207
ana-f_11-01-01_13-01-01_06-08-01_06-08-01_06-08-01 1.1.1 18.255340922516 -4.894906475243047
ana-f_11-02-08_13-02-08_06-10-08_06-10-08_06-10-08 1.1.1 18.004556437488002 -5.430007553172455
ana-f_11-02-08_15-02-08_06-10-08_06-10-08_06-10-08 1.1.1 24.017248608192 -4.840544028905739
ana-f_11-03-04_15-02-04_None_None_None 1.1.1 16.818592342087996 -5.441380460520368
ana-f_11-03-12_13-03-12_06-12-12_06-12-12_06-12-12 1.1.1 20.00426642456 -6.726577185344673
ana-f_11-04-05_12-02-05_None_None_None 1.1.1 16.100349084064 -12.458270205326228
ana-f_11-05-09_14-03-09_None_None_None 1.1.1 16.422578896248 -7.227599933932053
ana-f_12-01-01_12-01-01_10-08-01_10-08-01_10-08-01 1.1.1 16.059437611830003 -6.618496935387858
ana-f_12-01-01_13-01-01_06-08-01_06-08-01_06-08-01 1.1.1 17.949505486446 -5.692387749372241
ana-f_12-01-01_14-01-01_06-08-01_06-08-01_06-08-01 1.1.1 17.941620284892 -5.509384475982717
ana-f_12-01-01_16-01-01_06-08-01_06-08-01_06-08-01 1.1.1 15.135673161565 -5.992432408985239
ana-f_12-01-01_16-01-01_07-08-01_07-08-01_07-08-01 1.1.1 13.975869207884 -5.895055802036278
ana-f_12-02-04_14-03-04_None_None_None 1.1.1 11.589687761409 -8.266994856190557
ana-f_12-02-04_32-02-04_01-03-04_01-03-04_01-03-04 1.1.1 20.636137672656 -5.244862216144842
ana-f_12-02-08_13-02-08_06-10-08_06-10-08_06-10-08 1.1.1 18.124797684948 -6.260155995083696
ana-f_12-02-08_15-02-08_06-10-08_06-10-08_06-10-08 1.1.1 23.212204111337 -4.262161172042396
ana-f_12-03-09_16-05-09_None_None_None 1.1.1 14.854524323949995 -9.668103210523684
ana-f_12-03-09_32-05-09_None_None_None 1.1.1 17.19818052915 -8.178340838399723
ana-f_13-01-01_23-08-01_None_None_None 1.1.1 14.13645232028 -7.102077529903956
ana-f_13-02-04_12-02-04_02-03-04_02-03-04_02-03-04 1.1.1 18.222426291449 -5.983523791982539
ana-f_13-02-04_13-03-04_None_None_None 1.1.1 18.905076404187 -6.7744223356383815
ana-f_13-05-09_12-03-09_None_None_None 1.1.1 17.470755655275003 -9.193243782423968
ana-f_14-01-01_17-08-01_None_None_None 1.1.1 11.40557424721 -8.169184620204637
ana-f_14-01-03_35-11-03_None_None_None 1.1.1 11.135831908482 -8.029981469593167
ana-f_14-02-04_12-02-04_01-03-04_01-03-04_01-03-04 1.1.1 21.619126743342 -5.931036082099204
ana-f_14-02-04_12-02-04_02-03-04_02-03-04_02-03-04 1.1.1 17.93081642688 -6.501107854967186
ana-f_14-02-04_16-03-04_None_None_None 1.1.1 15.686105730532 -6.608405070837546
ana-f_14-02-06_12-02-06_None_None_None 1.1.1 13.705214956416 -7.45442222396987
ana-f_14-02-08_12-02-08_06-10-08_06-10-08_06-10-08 1.1.1 17.593369176110997 -5.870050945366717
ana-f_14-02-08_19-10-08_None_None_None 1.1.1 14.532261853431002 -6.253009815294729
ana-f_14-03-04_14-02-04_None_None_None 1.1.1 17.997437321431995 -5.767140970011795
ana-f_14-03-09_14-05-09_None_None_None 1.1.1 22.650163858977 -5.739632477022795
ana-f_14-03-12_12-03-12_06-12-12_06-12-12_06-12-12 1.1.1 19.406877368936 -8.008578412214133
ana-f_15-05-09_11-03-09_None_None_None 1.1.1 21.248464861035995 -6.394961631467982
ana-f_16-01-01_11-01-01_07-08-01_07-08-01_07-08-01 1.1.1 14.029906404996 -5.889528396080902
ana-f_16-02-05_13-04-05_None_None_None 1.1.1 20.698801874452 -5.973404508240875
ana-f_16-02-05_14-04-05_None_None_None 1.1.1 20.12016180018 -5.952842931117657
ana-f_16-02-05_32-04-05_None_None_None 1.1.1 20.26541427729 -6.734984087430822
ana-f_16-02-06_32-02-06_None_None_None 1.1.1 19.241634929162 -5.965647531271755
ana-f_16-02-08_11-02-08_06-10-08_06-10-08_06-10-08 1.1.1 14.917610667978 -6.170505832166917
ana-f_16-03-04_15-02-04_None_None_None 1.1.1 20.574092221963 -4.366482213601307
ana-f_16-03-04_32-02-04_None_None_None 1.1.1 16.255278258199997 -6.3928261878686445
ana-f_16-03-12_12-03-12_06-12-12_06-12-12_06-12-12 1.1.1 17.469978422352 -7.164286526477512
ana-f_16-04-05_15-02-05_None_None_None 1.1.1 25.982249543859 -5.147596365911936
ana-f_17-08-01_20-08-01_01-01-01_01-01-01_01-01-01 1.1.1 19.265057504343 -4.741784828309141
ana-f_17-08-01_20-08-01_02-01-01_02-01-01_02-01-01 1.1.1 14.868819052920005 -5.569693619299824
ana-f_17-10-08_19-10-08_01-02-08_01-02-08_01-02-08 1.1.1 16.279137833244004 -5.437991432554631
ana-f_17-10-08_23-10-08_02-02-08_02-02-08_02-02-08 1.1.1 14.490989160975 -7.9568079573107555
ana-f_17-12-12_20-12-12_02-03-12_02-03-12_02-03-12 1.1.1 18.041637746664 -6.841448785316582
ana-f_17-12-12_23-12-12_01-03-12_01-03-12_01-03-12 1.1.1 18.560934866544 -7.452167087475634
ana-f_18-08-01_32-01-01_None_None_None 1.1.1 14.037226104531 -7.170275396391241
ana-f_18-10-08_17-10-08_01-02-08_01-02-08_01-02-08 1.1.1 12.986594010372002 -6.949231012793699
ana-f_18-10-08_32-02-08_None_None_None 1.1.1 14.335497113289998 -7.775689780690049
ana-f_18-12-12_17-12-12_01-03-12_01-03-12_01-03-12 1.1.1 18.717441401118 -8.653259550869924
ana-f_19-08-01_18-08-01_02-01-01_02-01-01_02-01-01 1.1.1 16.526847708896 -5.192702998528958
ana-f_20-08-01_14-01-01_None_None_None 1.1.1 17.40882713484 -5.289191606454014
ana-f_20-12-12_12-03-12_None_None_None 1.1.1 13.594138532024004 -9.195354717182465
ana-f_23-08-01_17-08-01_01-01-01_01-01-01_01-01-01 1.1.1 15.465254816088002 -5.732587179410789
ana-f_23-10-08_23-10-08_01-02-08_01-02-08_01-02-08 1.1.1 19.425803516272 -5.943566947337498
ana-f_23-12-12_12-03-12_None_None_None 1.1.1 15.41581086546 -12.90911095262749
ana-f_23-12-12_17-12-12_02-03-12_02-03-12_02-03-12 1.1.1 16.0012029528 -10.256811497025708
ana-f_32-01-01_12-01-01_06-08-01_06-08-01_06-08-01 1.1.1 18.563018550416 -5.830184040782566
ana-f_32-01-02_33-11-02_None_None_None 1.1.1 12.039974066648002 -9.816114550541348
ana-f_32-02-08_17-10-08_None_None_None 1.1.1 13.011729840832 -8.387822976831288
ana-f_32-02-08_23-10-08_None_None_None 1.1.1 15.021941255680002 -7.246138143468705
ana-f_32-05-09_14-03-09_None_None_None 1.1.1 23.557918067088 -7.474900201164115
ana-f_32-06-10_34-11-10_None_None_None 1.1.1 11.943080355843003 -10.441183343759471
ana-f_32-07-11_36-11-11_None_None_None 1.1.1 10.986980846256 -10.143160040398442
ana-f_33-11-02_33-11-02_01-01-02_02-01-02_02-01-02 1.1.1 8.300325311994001 -8.882893781813397
ana-f_33-11-02_33-11-02_02-01-02_01-01-02_01-01-02 1.1.1 9.121290033978 -9.934147281478324
ana-f_34-11-10_34-11-10_01-06-10_01-06-10_02-06-10 1.1.1 8.490071373974999 -9.1421097414552
ana-f_34-11-10_34-11-10_01-06-10_02-06-10_02-06-10 1.1.1 7.9933618201369985 -9.14761451683144
ana-f_35-11-03_32-01-03_None_None_None 1.1.1 12.137205826064 -10.289511590728758
ana-f_35-11-03_35-11-03_01-01-03_01-01-03_01-01-03 1.1.1 11.800825088744997 -7.25969803586832
ana-f_35-11-03_35-11-03_01-01-03_01-01-03_02-01-03 1.1.1 10.67369064453 -8.523992664315017
ana-f_35-11-03_35-11-03_02-01-03_02-01-03_02-01-03 1.1.1 8.809754058411999 -9.323078633464934
ana-f_35-11-03_35-11-03_04-01-03_03-01-03_04-01-03 1.1.1 16.054417464188997 -6.23831528606511
ana-f_36-11-11_36-11-11_01-07-11_01-07-11_02-07-11 1.1.1 7.030508304435 -7.073245076797993
ana-f_36-11-11_36-11-11_01-07-11_02-07-11_02-07-11 1.1.1 6.544830456326001 -8.073372283427101
ana-f_36-11-11_36-11-11_04-07-11_03-07-11_03-07-11 1.1.1 13.62467312081 -6.5333011079264
ana_30-02-08_07-10-08 1.1.1 6.876781054682 -11.988697016348912
asf-a_16-04-05_28-04-05_28-04-05_01-02-05_01-02-05_01-02-05_01-02-05_01-02-05_01-02-05_01-02-05_01-02-05 1.1.1 37.671607463789 -4.929328101057821
asf-a_16-04-05_28-04-05_28-04-05_02-02-05_02-02-05_02-02-05_02-02-05_02-02-05_02-02-05_02-02-05_02-02-05 1.1.1 32.54610601265399 -4.89003473554825
asf_31-04-05_29-04-05_01-02-05_01-02-05 1.1.1 20.084407526364995 -7.176485860554846
asn_11-01-01_11-01-01_11-01-01_11-01-01_28-01-01_28-01-01_07-08-01_07-08-01_07-08-01_07-08-01_07-08-01_07-08-01_07-08-01_07-08-01 1.1.1 7.349603751238 -8.43922512767704
asn_11-02-06_11-02-06_11-02-06_11-02-06_30-02-06_30-02-06_02-02-06_02-02-06_02-02-06_02-02-06_02-02-06_02-02-06_02-02-06_02-02-06 1.1.1 9.044334362151998 -7.328251425508713
asn_11-03-09_11-03-09_11-03-09_11-03-09_29-03-09_29-03-09_04-05-09_04-05-09_04-05-09_04-05-09_04-05-09_04-05-09_04-05-09_04-05-09 1.1.1 17.307086812875998 -7.662579767492989
asn_11-05-09_11-05-09_11-05-09_11-05-09_29-03-09_29-03-09_None_None_None_None_None_None_None_None 1.1.1 10.7359291839 -10.812570254945523
asn_12-02-04_12-02-04_12-02-04_12-02-04_29-03-04_29-03-04_None_None_None_None_None_None_None_None 1.1.1 8.268759012 -10.842796235702062
asn_12-02-06_12-02-06_12-02-06_12-02-06_29-02-06_29-02-06_None_None_None_None_None_None_None_None 1.1.1 7.898572564836001 -9.581920219402909
asn_12-03-04_12-03-04_12-03-04_12-03-04_29-03-04_29-03-04_03-02-04_03-02-04_03-02-04_03-02-04_03-02-04_03-02-04_03-02-04_03-02-04 1.1.1 12.99605685084 -6.155699125596168
asn_12-03-04_12-03-04_12-03-04_12-03-04_30-03-04_30-03-04_02-02-04_02-02-04_02-02-04_02-02-04_02-02-04_02-02-04_02-02-04_02-02-04 1.1.1 6.982718449022001 -9.795565057678813
asn_12-03-09_12-03-09_12-03-09_12-03-09_29-03-09_29-03-09_01-05-09_01-05-09_01-05-09_01-05-09_01-05-09_01-05-09_01-05-09_01-05-09 1.1.1 14.638977424288 -6.519363608782272
asn_12-03-09_12-03-09_12-03-09_12-03-09_29-03-09_29-03-09_02-05-09_02-05-09_02-05-09_02-05-09_02-05-09_02-05-09_02-05-09_02-05-09 1.1.1 12.583431417727995 -7.885040268016946
asn_12-03-09_12-03-09_12-03-09_12-03-09_29-03-09_29-03-09_04-05-09_04-05-09_04-05-09_04-05-09_04-05-09_04-05-09_04-05-09_04-05-09 1.1.1 16.861985868593997 -7.437182700783764
asn_13-01-01_13-01-01_13-01-01_13-01-01_29-01-01_29-01-01_09-08-01_09-08-01_09-08-01_09-08-01_09-08-01_09-08-01_09-08-01_09-08-01 1.1.1 10.889959407468 -7.854499950886637
asn_13-02-08_13-02-08_13-02-08_13-02-08_29-02-08_29-02-08_08-10-08_08-10-08_08-10-08_08-10-08_08-10-08_08-10-08_08-10-08_08-10-08 1.1.1 12.319708484252 -7.350173604280354
asn_13-03-12_13-03-12_13-03-12_13-03-12_30-03-12_30-03-12_09-12-12_09-12-12_09-12-12_09-12-12_09-12-12_09-12-12_09-12-12_09-12-12 1.1.1 11.197012705941995 -10.929197834030637
asn_14-02-08_14-02-08_14-02-08_14-02-08_29-02-08_29-02-08_07-10-08_07-10-08_07-10-08_07-10-08_07-10-08_07-10-08_07-10-08_07-10-08 1.1.1 10.80098265054 -7.3196374804080975
asn_14-02-08_14-02-08_14-02-08_14-02-08_29-02-08_29-02-08_09-10-08_09-10-08_09-10-08_09-10-08_09-10-08_09-10-08_09-10-08_09-10-08 1.1.1 10.960490426183998 -8.402726455959316
asn_14-02-08_14-02-08_14-02-08_14-02-08_30-02-08_30-02-08_10-10-08_10-10-08_10-10-08_10-10-08_10-10-08_10-10-08_10-10-08_10-10-08 1.1.1 12.185060892270004 -6.333697830241358
asn_14-03-09_14-03-09_14-03-09_14-03-09_29-03-09_29-03-09_03-05-09_03-05-09_03-05-09_03-05-09_03-05-09_03-05-09_03-05-09_03-05-09 1.1.1 21.887529999831997 -5.710062881036199
asn_14-03-09_14-03-09_14-03-09_14-03-09_29-03-09_29-03-09_04-05-09_04-05-09_04-05-09_04-05-09_04-05-09_04-05-09_04-05-09_04-05-09 1.1.1 20.404822723362003 -6.090610896636504
asn_14-03-12_14-03-12_14-03-12_14-03-12_29-03-12_29-03-12_10-12-12_10-12-12_10-12-12_10-12-12_10-12-12_10-12-12_10-12-12_10-12-12 1.1.1 15.773426643195002 -7.449811580068523
asn_14-03-12_14-03-12_14-03-12_14-03-12_30-03-12_30-03-12_09-12-12_09-12-12_09-12-12_09-12-12_09-12-12_09-12-12_09-12-12_09-12-12 1.1.1 11.2072919229 -10.581220562162716
asn_14-05-09_14-05-09_14-05-09_14-05-09_29-05-09_29-05-09_01-03-09_01-03-09_01-03-09_01-03-09_01-03-09_01-03-09_01-03-09_01-03-09 1.1.1 18.021623427132003 -6.760773681979988
asn_14-05-09_14-05-09_14-05-09_14-05-09_29-05-09_29-05-09_02-03-09_02-03-09_02-03-09_02-03-09_02-03-09_02-03-09_02-03-09_02-03-09 1.1.1 15.935263852354002 -6.543460080035309
asn_15-01-01_15-01-01_15-01-01_15-01-01_30-01-01_30-01-01_10-08-01_10-08-01_10-08-01_10-08-01_10-08-01_10-08-01_10-08-01_10-08-01 1.1.1 14.418864443102002 -5.354960123527871
asn_15-02-04_15-02-04_15-02-04_15-02-04_30-02-04_30-02-04_02-03-04_02-03-04_02-03-04_02-03-04_02-03-04_02-03-04_02-03-04_02-03-04 1.1.1 10.52636045582 -6.594208979767597
asn_15-02-04_15-02-04_15-02-04_15-02-04_30-02-04_30-02-04_04-03-04_04-03-04_04-03-04_04-03-04_04-03-04_04-03-04_04-03-04_04-03-04 1.1.1 15.097603973808004 -5.977774554129256
asn_15-02-06_15-02-06_15-02-06_15-02-06_29-02-06_29-02-06_04-02-06_04-02-06_04-02-06_04-02-06_04-02-06_04-02-06_04-02-06_04-02-06 1.1.1 23.31268034542401 -4.698432304235973
asn_15-02-06_15-02-06_15-02-06_15-02-06_29-02-06_29-02-06_05-02-06_05-02-06_05-02-06_05-02-06_05-02-06_05-02-06_05-02-06_05-02-06 1.1.1 32.76646189574101 -4.192093110887557
asn_15-02-08_15-02-08_15-02-08_15-02-08_29-02-08_29-02-08_07-10-08_07-10-08_07-10-08_07-10-08_07-10-08_07-10-08_07-10-08_07-10-08 1.1.1 12.737233942160003 -6.34632821750476
asn_15-02-08_15-02-08_15-02-08_15-02-08_29-02-08_29-02-08_09-10-08_09-10-08_09-10-08_09-10-08_09-10-08_09-10-08_09-10-08_09-10-08 1.1.1 12.585808673888 -8.033321774870178
asn_15-02-08_15-02-08_15-02-08_15-02-08_30-02-08_30-02-08_10-10-08_10-10-08_10-10-08_10-10-08_10-10-08_10-10-08_10-10-08_10-10-08 1.1.1 14.581341352031998 -5.835614887451899
asn_15-03-04_15-03-04_15-03-04_15-03-04_30-03-04_30-03-04_03-02-04_03-02-04_03-02-04_03-02-04_03-02-04_03-02-04_03-02-04_03-02-04 1.1.1 16.247536260173998 -6.258617826629191
asn_15-03-09_15-03-09_15-03-09_15-03-09_30-03-09_30-03-09_04-05-09_04-05-09_04-05-09_04-05-09_04-05-09_04-05-09_04-05-09_04-05-09 1.1.1 20.808326505012 -5.495836735730231
asn_15-03-12_15-03-12_15-03-12_15-03-12_29-03-12_29-03-12_07-12-12_07-12-12_07-12-12_07-12-12_07-12-12_07-12-12_07-12-12_07-12-12 1.1.1 13.919380708464 -7.729383397290967
asn_15-03-12_15-03-12_15-03-12_15-03-12_29-03-12_29-03-12_09-12-12_09-12-12_09-12-12_09-12-12_09-12-12_09-12-12_09-12-12_09-12-12 1.1.1 13.833663959345998 -9.63907333567359
asn_15-03-12_15-03-12_15-03-12_15-03-12_29-03-12_29-03-12_10-12-12_10-12-12_10-12-12_10-12-12_10-12-12_10-12-12_10-12-12_10-12-12 1.1.1 18.176502122076 -5.260824309415595
asn_15-03-12_15-03-12_15-03-12_15-03-12_30-03-12_30-03-12_08-12-12_08-12-12_08-12-12_08-12-12_08-12-12_08-12-12_08-12-12_08-12-12 1.1.1 13.232591134550002 -7.863039925459257
asn_15-04-05_15-04-05_15-04-05_15-04-05_29-04-05_29-04-05_03-02-05_03-02-05_03-02-05_03-02-05_03-02-05_03-02-05_03-02-05_03-02-05 1.1.1 25.095421430592 -6.080497756169319
asn_15-05-09_15-05-09_15-05-09_15-05-09_29-05-09_29-05-09_01-03-09_01-03-09_01-03-09_01-03-09_01-03-09_01-03-09_01-03-09_01-03-09 1.1.1 20.825244504960004 -4.696425430201422
asn_16-01-01_16-01-01_16-01-01_16-01-01_30-01-01_30-01-01_06-08-01_06-08-01_06-08-01_06-08-01_06-08-01_06-08-01_06-08-01_06-08-01 1.1.1 7.662587024260001 -6.64973695180745
asn_16-02-04_16-02-04_16-02-04_16-02-04_29-02-04_29-02-04_05-03-04_05-03-04_05-03-04_05-03-04_05-03-04_05-03-04_05-03-04_05-03-04 1.1.1 21.116502909180003 -5.567586039278483
asn_16-02-05_16-02-05_16-02-05_16-02-05_28-04-05_28-04-05_None_None_None_None_None_None_None_None 1.1.1 11.096560951632 -9.429516180730042
asn_16-02-06_16-02-06_16-02-06_16-02-06_28-02-06_28-02-06_04-02-06_04-02-06_04-02-06_04-02-06_04-02-06_04-02-06_04-02-06_04-02-06 1.1.1 18.033620225376 -5.88128349453311
asn_16-02-06_16-02-06_16-02-06_16-02-06_29-02-06_29-02-06_None_None_None_None_None_None_None_None 1.1.1 9.805198043394 -8.307610828461346
asn_16-02-08_16-02-08_16-02-08_16-02-08_29-02-08_29-02-08_07-10-08_07-10-08_07-10-08_07-10-08_07-10-08_07-10-08_07-10-08_07-10-08 1.1.1 9.874807014688 -7.6468498583105
asn_16-02-08_16-02-08_16-02-08_16-02-08_30-02-08_30-02-08_08-10-08_08-10-08_08-10-08_08-10-08_08-10-08_08-10-08_08-10-08_08-10-08 1.1.1 9.360243404375 -9.18135617577205
asn_16-03-04_16-03-04_16-03-04_16-03-04_28-03-04_28-03-04_02-02-04_02-02-04_02-02-04_02-02-04_02-02-04_02-02-04_02-02-04_02-02-04 1.1.1 9.706667328295003 -7.1780827196081365
asn_16-03-09_16-03-09_16-03-09_16-03-09_29-03-09_29-03-09_04-05-09_04-05-09_04-05-09_04-05-09_04-05-09_04-05-09_04-05-09_04-05-09 1.1.1 19.124286685848 -6.43019347553987
asn_16-03-12_16-03-12_16-03-12_16-03-12_29-03-12_29-03-12_08-12-12_08-12-12_08-12-12_08-12-12_08-12-12_08-12-12_08-12-12_08-12-12 1.1.1 12.618949809215996 -8.800843853704029
asn_16-03-12_16-03-12_16-03-12_16-03-12_29-03-12_29-03-12_10-12-12_10-12-12_10-12-12_10-12-12_10-12-12_10-12-12_10-12-12_10-12-12 1.1.1 15.004092614035 -7.688080591537084
asn_20-12-12_20-12-12_20-12-12_20-12-12_29-03-12_29-03-12_None_None_None_None_None_None_None_None 1.1.1 9.887365833551998 -9.652997590632603
asn_32-01-01_32-01-01_32-01-01_32-01-01_29-01-01_29-01-01_09-08-01_09-08-01_09-08-01_09-08-01_09-08-01_09-08-01_09-08-01_09-08-01 1.1.1 10.746290427656998 -7.900989928143311
asn_32-01-01_32-01-01_32-01-01_32-01-01_29-01-01_29-01-01_10-08-01_10-08-01_10-08-01_10-08-01_10-08-01_10-08-01_10-08-01_10-08-01 1.1.1 14.647066196308003 -5.7579877515492255
asn_32-02-04_32-02-04_32-02-04_32-02-04_29-02-04_29-02-04_05-03-04_05-03-04_05-03-04_05-03-04_05-03-04_05-03-04_05-03-04_05-03-04 1.1.1 22.318039894399995 -5.545086159369933
asn_32-02-04_32-02-04_32-02-04_32-02-04_30-03-04_30-03-04_None_None_None_None_None_None_None_None 1.1.1 8.909001059016001 -10.942879270432956
asn_32-02-08_32-02-08_32-02-08_32-02-08_30-02-08_30-02-08_09-10-08_09-10-08_09-10-08_09-10-08_09-10-08_09-10-08_09-10-08_09-10-08 1.1.1 9.89654059821 -9.5310156157222
asn_32-03-09_32-03-09_32-03-09_32-03-09_29-03-09_29-03-09_02-05-09_02-05-09_02-05-09_02-05-09_02-05-09_02-05-09_02-05-09_02-05-09 1.1.1 15.225599177984998 -6.656231372425679
asn_32-03-09_32-03-09_32-03-09_32-03-09_30-03-09_30-03-09_03-05-09_03-05-09_03-05-09_03-05-09_03-05-09_03-05-09_03-05-09_03-05-09 1.1.1 19.065479870052 -6.8936114312960965
asn_32-03-12_32-03-12_32-03-12_32-03-12_29-03-12_29-03-12_10-12-12_10-12-12_10-12-12_10-12-12_10-12-12_10-12-12_10-12-12_10-12-12 1.1.1 15.822962823228 -7.589475476871376
asn_32-03-12_32-03-12_32-03-12_32-03-12_30-03-12_30-03-12_09-12-12_09-12-12_09-12-12_09-12-12_09-12-12_09-12-12_09-12-12_09-12-12 1.1.1 11.212327382255996 -11.492168278064838
asn_32-05-09_32-05-09_32-05-09_32-05-09_29-03-09_29-03-09_None_None_None_None_None_None_None_None 1.1.1 12.502530428975996 -8.62721560294951
asn_33-11-02_33-11-02_33-11-02_33-11-02_29-01-02_29-01-02_None_None_None_None_None_None_None_None 1.1.2 13.931500847844 -16.330998264041042
ast_28-01-01_29-01-01_06-08-01_07-08-01 1.1.1 9.083433947892 -7.732420304211834
ast_28-01-01_29-01-01_07-08-01_06-08-01 1.1.1 8.99025696943 -7.940432319870104
ast_28-01-01_29-01-01_09-08-01_08-08-01 1.1.1 9.722669588928 -8.20781012572925
ast_28-01-01_30-01-01_06-08-01_08-08-01 1.1.1 8.754179646814 -7.4271888116253475
ast_28-01-01_30-01-01_06-08-01_09-08-01 1.1.1 8.518957455333 -8.712845746052045
ast_28-01-01_30-01-01_07-08-01_09-08-01 1.1.1 8.270654770256 -8.5099110207365
ast_28-02-04_28-02-04_01-03-04_02-03-04 1.1.1 10.2824988766 -6.876778927563306
ast_28-02-04_29-02-04_04-03-04_04-03-04 1.1.1 13.10342689208 -6.674521757052025
ast_28-02-04_29-02-04_05-03-04_05-03-04 1.1.1 19.10178999586 -5.510596471527603
ast_28-02-06_28-02-06_01-02-06_02-02-06 1.1.1 13.110239688130005 -5.836282673782095
ast_28-02-06_29-02-06_03-02-06_04-02-06 1.1.1 17.368795471497002 -6.192651965327324
ast_28-02-06_29-02-06_04-02-06_03-02-06 1.1.1 17.071943016064004 -5.924269108148364
ast_28-02-08_29-02-08_06-10-08_07-10-08 1.1.1 9.59243158739 -7.568381013794591
ast_28-02-08_29-02-08_07-10-08_06-10-08 1.1.1 9.544053435729 -7.93557383779737
ast_28-02-08_29-02-08_08-10-08_09-10-08 1.1.1 10.123377129944 -9.06689172698281
ast_28-02-08_30-02-08_06-10-08_08-10-08 1.1.1 9.388292398947 -8.27229969849817
ast_28-02-08_30-02-08_06-10-08_09-10-08 1.1.1 9.152534445594 -9.528741979374065
ast_28-02-08_30-02-08_07-10-08_09-10-08 1.1.1 9.009767237808 -9.419661313191462
ast_28-03-09_28-03-09_02-05-09_01-05-09 1.1.1 13.616040654990002 -7.9023881298384895
ast_28-03-09_29-03-09_03-05-09_03-05-09 1.1.1 18.660827642145 -6.742189518488146
ast_28-03-12_29-03-12_06-12-12_07-12-12 1.1.1 11.913234142320002 -10.745608103028925
ast_28-03-12_29-03-12_08-12-12_09-12-12 1.1.1 12.153234615 -10.25775494621842
ast_28-03-12_29-03-12_09-12-12_08-12-12 1.1.1 11.892581991675 -10.10568272961153
ast_28-03-12_29-03-12_10-12-12_10-12-12 1.1.1 14.259127890841 -7.779527157901449
ast_28-03-12_30-03-12_06-12-12_09-12-12 1.1.1 11.618009012411 -11.169221069866287
ast_28-03-12_30-03-12_07-12-12_08-12-12 1.1.1 11.458748217762 -10.315566172310774
ast_28-03-12_30-03-12_07-12-12_09-12-12 1.1.1 11.191542674831998 -12.361170662657326
ast_28-05-09_29-05-09_02-03-09_02-03-09 1.1.1 13.407073112295002 -7.53007501926851
ast_29-01-01_28-01-01_06-08-01_06-08-01 1.1.1 9.666944943562 -6.607488887079255
ast_29-01-01_28-01-01_06-08-01_07-08-01 1.1.1 9.464737491972 -7.845845941235932
ast_29-01-01_28-01-01_08-08-01_09-08-01 1.1.1 10.094746264372 -7.939071545586452
ast_29-01-01_29-01-01_07-08-01_06-08-01 1.1.1 9.686995265008 -7.047997301786277
ast_29-01-01_29-01-01_09-08-01_08-08-01 1.1.1 10.143009191936 -8.473161665373043
ast_29-02-04_28-02-04_05-03-04_05-03-04 1.1.1 19.425305468303 -5.714334190886824
ast_29-02-05_29-02-05_01-04-05_01-04-05 1.1.1 16.62392296322 -7.9996912526258335
ast_29-02-05_29-02-05_03-04-05_04-04-05 1.1.1 19.208252742588 -7.356965461583818
ast_29-02-06_28-02-06_02-02-06_01-02-06 1.1.1 13.354217719927997 -6.054390707074637
ast_29-02-06_28-02-06_03-02-06_04-02-06 1.1.1 17.700877303295 -6.34105609795183
ast_29-02-06_28-02-06_04-02-06_04-02-06 1.1.1 17.248696699904002 -5.653842876068744
ast_29-02-06_28-02-06_05-02-06_05-02-06 1.1.1 23.997567714662 -4.975805833635458
ast_29-02-06_29-02-06_03-02-06_03-02-06 1.1.1 18.61982314605 -5.666024474893725
ast_29-02-06_29-02-06_04-02-06_03-02-06 1.1.1 17.698607147106003 -5.721391067291535
ast_29-02-08_28-02-08_06-10-08_07-10-08 1.1.1 9.826338570543 -8.201439555627122
ast_29-02-08_28-02-08_09-10-08_08-10-08 1.1.1 10.543901078214002 -9.406110493920732
ast_29-03-09_28-03-09_02-05-09_02-05-09 1.1.1 13.471613090025 -7.790579338500759
ast_29-03-09_28-03-09_04-05-09_04-05-09 1.1.1 17.699053027472004 -6.745384320705778
ast_29-03-09_29-03-09_01-05-09_02-05-09 1.1.1 14.87362859521 -7.363032223125539
ast_29-03-12_28-03-12_07-12-12_06-12-12 1.1.1 11.925452168091 -10.270378015517505
ast_29-03-12_28-03-12_08-12-12_08-12-12 1.1.1 12.500998483124 -9.30325252346099
ast_29-03-12_29-03-12_08-12-12_09-12-12 1.1.1 12.27720005828 -9.950472511242072
ast_29-05-09_29-05-09_04-03-09_03-03-09 1.1.1 18.5526153656 -6.725976557795852
ast_30-01-01_28-01-01_08-08-01_07-08-01 1.1.1 7.940830331114999 -9.918847533310537
ast_30-01-01_28-01-01_09-08-01_06-08-01 1.1.1 7.951436295571999 -10.55626522643326
ast_30-01-01_28-01-01_10-08-01_08-08-01 1.1.1 8.714960190927 -7.635121961900124
ast_30-01-01_28-01-01_10-08-01_09-08-01 1.1.1 8.374787359461 -8.294625039176971
ast_30-02-08_28-02-08_08-10-08_06-10-08 1.1.1 8.966713532436 -12.174705787974204
ast_30-02-08_28-02-08_08-10-08_07-10-08 1.1.1 8.782854960510003 -11.025135086850687
ast_30-02-08_28-02-08_09-10-08_06-10-08 1.1.1 8.910900163810002 -13.553800304951734
ast_30-02-08_28-02-08_10-10-08_09-10-08 1.1.1 9.102694294783998 -9.98850412877101
ast_30-03-12_28-03-12_08-12-12_07-12-12 1.1.1 11.888632213328004 -12.96331402786538
ast_30-03-12_28-03-12_09-12-12_07-12-12 1.1.1 11.045828579198 -13.884093711226347
ast_30-03-12_30-03-12_09-12-12_08-12-12 1.1.1 11.171263023144 -15.13803469498586
ast_30-04-05_30-04-05_02-02-05_01-02-05 1.1.1 13.096269225600002 -10.35310151058186
ast_30-04-05_30-04-05_03-02-05_04-02-05 1.1.1 15.745397762115 -9.546796036989509
asv_31-02-05_29-02-05_05-04-05_05-04-05_05-04-05 1.1.1 24.398508065 -6.277372722290104
asv_31-02-06_28-02-06_01-02-06_01-02-06_02-02-06 1.1.1 13.605203481821995 -5.660312220236482
asv_31-02-06_29-02-06_03-02-06_04-02-06_03-02-06 1.1.1 17.982943590054 -5.633427292069772
asv_31-02-06_29-02-06_03-02-06_04-02-06_04-02-06 1.1.1 17.305304115156 -5.565701419057055
asv_31-02-06_29-02-06_04-02-06_04-02-06_03-02-06 1.1.1 17.233667820192 -5.414895775424996
asv_31-03-04_29-03-04_03-02-04_03-02-04_03-02-04 1.1.1 14.223097185696002 -6.961355934712231
asv_31-03-12_28-03-12_09-12-12_09-12-12_09-12-12 1.1.2 9.795721357984 -12.044445812144383
atn_28-02-08_07-10-08_06-10-08_06-10-08 1.1.1 8.918098752356 -8.284318373620044
atn_29-01-01_07-08-01_06-08-01_07-08-01 1.1.1 8.955096142982999 -7.490849010357661
atn_29-03-12_06-12-12_07-12-12_06-12-12 1.1.1 11.817313113101998 -10.256196270138746
atn_29-03-12_08-12-12_09-12-12_09-12-12 1.1.1 11.861549045304 -10.187429335728668
ato_28-03-09_01-05-09_01-05-09_01-05-09_01-05-09 1.1.1 13.91509642336 -8.13514952062154
aww_30-02-06_30-02-06_01-02-06_01-02-06_01-02-06_01-02-06_01-02-06 1.1.1 9.953949910227005 -6.957547157359388
baa_30-05-09_30-05-09_04-03-09_03-03-09 1.1.1 13.152848756898 -9.203067445876824
baa_31-03-12_28-03-12_06-12-12_06-12-12 1.1.1 11.118667267603003 -11.009853880095797
baa_31-03-12_29-03-12_07-12-12_07-12-12 1.1.1 10.873847521869004 -11.647640091326998
baa_31-03-12_29-03-12_09-12-12_08-12-12 1.1.1 11.039566011694 -11.169813131146851
bab_30-01-01_30-01-01_06-08-01_06-08-01_06-08-01_06-08-01 1.1.1 6.7980266851860005 -8.498833684167149
bab_30-02-05_30-02-05_05-04-05_05-04-05_05-04-05_05-04-05 1.1.1 18.200011840704 -7.516038032680236
bab_30-02-08_30-02-08_06-10-08_06-10-08_06-10-08_06-10-08 1.1.1 8.141993271997999 -10.280073243144896
bac_29-02-06_29-02-06_03-02-06_04-02-06_04-02-06_04-02-06 1.1.1 15.478417976868002 -5.291625413762965
bae_30-02-06_30-02-06_04-02-06_04-02-06_04-02-06_04-02-06_04-02-06 1.1.1 9.087666048787 -11.774208706880078
bag_30-02-06_30-02-06_01-02-06_01-02-06_01-02-06_01-02-06_01-02-06_01-02-06 1.1.1 21.95018380325 -5.236379123861999
bah_30-01-01_30-01-01_06-08-01_06-08-01_06-08-01_06-08-01_06-08-01_06-08-01_06-08-01 1.1.1 11.213445557853 -8.173528520828096
bah_30-02-08_30-02-08_06-10-08_06-10-08_06-10-08_06-10-08_06-10-08_06-10-08_06-10-08 1.1.1 12.789771174372 -8.94977857723949
bai_28-04-05_28-04-05_02-02-05_02-02-05_02-02-05 1.1.1 19.339229936138 -6.337823396712659
bai_28-04-05_29-04-05_01-02-05_01-02-05_01-02-05 1.1.1 23.321401544640004 -5.458126763275364
bai_28-04-05_29-04-05_04-02-05_04-02-05_04-02-05 1.1.1 27.587055567004995 -6.527295645417625
bai_28-05-09_28-05-09_01-03-09_01-03-09_01-03-09 1.1.1 21.225966953637 -6.510323133349935
bai_28-05-09_29-05-09_02-03-09_02-03-09_02-03-09 1.1.1 18.711729032675 -6.217231632469421
bai_30-02-04_30-02-04_05-03-04_05-03-04_05-03-04 1.1.1 19.216711310076 -5.965788864004334
bai_30-02-06_30-02-06_03-02-06_04-02-06_03-02-06 1.1.1 19.80885206251 -5.5898497221336
bai_30-02-06_30-02-06_03-02-06_04-02-06_04-02-06 1.1.1 18.754100132628 -5.502793954567291
baj_29-02-08_29-02-08_06-10-08_06-10-08_06-10-08_06-10-08_06-10-08 1.1.1 16.336709374275003 -6.3898369956408185
baj_30-01-01_30-01-01_06-08-01_06-08-01_06-08-01_06-08-01_06-08-01 1.1.1 9.438474459204 -7.7702186673985985
baj_30-02-08_30-02-08_06-10-08_06-10-08_06-10-08_06-10-08_06-10-08 1.1.1 11.073519697436 -9.949676341420064
bal_29-02-05_31-02-05_04-04-05_04-04-05_04-04-05_04-04-05 1.1.1 16.217597813465005 -7.3939811170035235
bal_29-02-06_29-02-06_03-02-06_03-02-06_04-02-06_03-02-06 1.1.1 11.961695584068 -8.344642234411035
bal_29-03-09_31-03-09_01-05-09_01-05-09_01-05-09_01-05-09 1.1.1 14.404021558467 -7.2347682349663485
bal_29-03-09_31-03-09_02-05-09_02-05-09_02-05-09_02-05-09 1.1.1 12.293673504833002 -8.174598575885414
bam_28-02-04_28-02-04_05-03-04_05-03-04_05-03-04_05-03-04_05-03-04_05-03-04_05-03-04 1.1.1 26.293104397200004 -5.3311474966102965
bam_28-02-06_28-02-06_03-02-06_03-02-06_03-02-06_03-02-06_03-02-06_03-02-06_03-02-06 1.1.1 24.486066615747 -4.470798094861653
bam_28-03-12_28-03-12_06-12-12_06-12-12_06-12-12_06-12-12_06-12-12_06-12-12_06-12-12 1.1.1 14.252825285930005 -10.27141882167427
bam_28-04-05_28-04-05_04-02-05_04-02-05_04-02-05_04-02-05_04-02-05_04-02-05_04-02-05 1.1.1 23.632293961276 -6.719766952316465
bam_28-05-09_28-05-09_03-03-09_03-03-09_03-03-09_03-03-09_03-03-09_03-03-09_03-03-09 1.1.1 25.457257219392005 -5.206313426219447
bam_29-01-01_29-01-01_09-08-01_09-08-01_09-08-01_09-08-01_09-08-01_09-08-01_09-08-01 1.1.1 12.158519931357 -7.306351817256894
bam_29-02-04_29-02-04_05-03-04_05-03-04_05-03-04_05-03-04_05-03-04_05-03-04_05-03-04 1.1.1 27.739308213486 -5.126695085488604
bam_29-02-05_29-02-05_01-04-05_01-04-05_01-04-05_01-04-05_01-04-05_01-04-05_01-04-05 1.1.1 21.1258269264 -6.842225794544179
bam_29-02-08_29-02-08_10-10-08_10-10-08_10-10-08_10-10-08_10-10-08_10-10-08_10-10-08 1.1.1 17.368403382022 -6.307312853549971
bam_29-03-09_29-03-09_01-05-09_01-05-09_01-05-09_01-05-09_01-05-09_01-05-09_01-05-09 1.1.1 20.396100448234 -6.07888513990067
bam_29-04-05_29-04-05_02-02-05_02-02-05_02-02-05_02-02-05_02-02-05_02-02-05_02-02-05 1.1.1 18.43073780653 -6.811065903399928
bam_29-05-09_29-05-09_04-03-09_04-03-09_04-03-09_04-03-09_04-03-09_04-03-09_04-03-09 1.1.1 24.570524023193997 -5.664957400871916
bam_30-01-01_30-01-01_10-08-01_10-08-01_10-08-01_10-08-01_10-08-01_10-08-01_10-08-01 1.1.1 10.894861214471998 -6.380114687995264
bam_30-02-08_30-02-08_10-10-08_10-10-08_10-10-08_10-10-08_10-10-08_10-10-08_10-10-08 1.1.1 11.518219265687998 -7.155814931560111
bam_30-04-05_30-04-05_02-02-05_02-02-05_02-02-05_02-02-05_02-02-05_02-02-05_02-02-05 1.1.1 15.1019403672 -9.838939628703828
bam_30-04-05_30-04-05_03-02-05_03-02-05_03-02-05_03-02-05_03-02-05_03-02-05_03-02-05 1.1.1 20.6125435229 -7.093048578248412
ban_28-02-06_28-02-06_05-02-06_05-02-06_05-02-06_05-02-06_05-02-06_05-02-06 1.1.1 28.031046788128 -4.620851671659166
ban_29-01-01_29-01-01_07-08-01_07-08-01_07-08-01_07-08-01_07-08-01_07-08-01 1.1.1 11.193235661809004 -6.747933925248192
ban_29-01-01_29-01-01_10-08-01_10-08-01_10-08-01_10-08-01_10-08-01_10-08-01 1.1.1 16.026517024 -6.49381198144064
ban_29-02-08_29-02-08_07-10-08_07-10-08_07-10-08_07-10-08_07-10-08_07-10-08 1.1.1 11.59233470892 -8.133080144513944
ban_29-03-12_29-03-12_06-12-12_06-12-12_06-12-12_06-12-12_06-12-12_06-12-12 1.1.1 14.273985047896002 -9.192379110934224
ban_29-03-12_29-03-12_09-12-12_09-12-12_09-12-12_09-12-12_09-12-12_09-12-12 1.1.1 13.602203127743998 -10.960057107578455
ban_29-03-12_29-03-12_10-12-12_10-12-12_10-12-12_10-12-12_10-12-12_10-12-12 1.1.1 17.400516761923 -8.003795098749439
ban_30-01-01_30-01-01_06-08-01_06-08-01_06-08-01_06-08-01_06-08-01_06-08-01 1.1.1 7.605569150104002 -9.566829803954624
ban_30-02-06_30-02-06_04-02-06_04-02-06_04-02-06_04-02-06_04-02-06_04-02-06 1.1.1 15.006479270656998 -6.907923555366118
ban_30-02-08_30-02-08_07-10-08_07-10-08_07-10-08_07-10-08_07-10-08_07-10-08 1.1.1 8.155389943008002 -11.519581412430048
bao_28-02-06_29-02-06_03-02-06_03-02-06_04-02-06 1.1.1 16.406388447212 -6.911960680312628
bao_28-02-06_29-02-06_03-02-06_04-02-06_04-02-06 1.1.1 15.846053097222 -5.852677332352768
bao_29-01-01_29-01-01_06-08-01_06-08-01_07-08-01 1.1.1 9.367420988592002 -7.943432882975611
bao_29-01-01_29-01-01_06-08-01_07-08-01_07-08-01 1.1.1 9.072213949080002 -8.030045048412054
bao_29-01-01_29-01-01_07-08-01_06-08-01_06-08-01 1.1.1 9.256564738788 -7.08573908579741
bao_29-01-01_29-01-01_07-08-01_07-08-01_06-08-01 1.1.1 9.316449483163002 -8.230865452943668
bao_29-01-01_29-01-01_08-08-01_08-08-01_09-08-01 1.1.1 9.783210630869998 -8.772927808109275
bao_29-01-01_29-01-01_08-08-01_09-08-01_09-08-01 1.1.1 9.553328393483 -8.81913130483485
bao_29-01-01_29-01-01_09-08-01_08-08-01_08-08-01 1.1.1 10.0803310452 -7.747215539818336
bao_29-01-01_29-01-01_09-08-01_09-08-01_08-08-01 1.1.1 9.774471005684 -10.17541841423725
bao_29-02-06_28-02-06_04-02-06_03-02-06_03-02-06 1.1.1 16.067626488298 -5.469965476111351
bao_29-02-06_28-02-06_04-02-06_04-02-06_03-02-06 1.1.1 15.0658151056 -5.901597480071465
bao_29-02-06_29-02-06_04-02-06_03-02-06_03-02-06 1.1.1 17.456381596104002 -6.270572167078492
bao_29-02-08_29-02-08_06-10-08_06-10-08_06-10-08 1.1.1 9.98309379572 -7.331448432250148
bao_29-02-08_29-02-08_06-10-08_06-10-08_07-10-08 1.1.1 9.296369890106 -7.886217809497284
bao_29-02-08_29-02-08_06-10-08_07-10-08_07-10-08 1.1.1 9.3178932028 -8.22066983223063
bao_29-02-08_29-02-08_07-10-08_06-10-08_06-10-08 1.1.1 9.686579516654 -8.019726250841693
bao_29-02-08_29-02-08_07-10-08_07-10-08_06-10-08 1.1.1 9.622496888980002 -8.211949227533403
bao_29-02-08_29-02-08_08-10-08_08-10-08_09-10-08 1.1.1 10.367086280798 -8.828566678774493
bao_29-02-08_29-02-08_08-10-08_09-10-08_09-10-08 1.1.1 10.125965151952 -9.179101836155017
bao_29-02-08_29-02-08_09-10-08_08-10-08_08-10-08 1.1.1 10.375055728184 -8.960480888789164
bao_29-02-08_29-02-08_09-10-08_09-10-08_08-10-08 1.1.1 10.096085321824 -9.2155991280027
bao_29-02-08_29-02-08_09-10-08_09-10-08_09-10-08 1.1.1 10.092745712116 -10.740030272274256
bao_29-03-12_29-03-12_06-12-12_06-12-12_07-12-12 1.1.1 12.051663640097 -10.546734628798916
bao_29-03-12_29-03-12_06-12-12_07-12-12_07-12-12 1.1.1 11.780835465701005 -10.813180673253006
bao_29-03-12_29-03-12_07-12-12_06-12-12_06-12-12 1.1.1 11.706174137773 -9.845889806276483
bao_29-03-12_29-03-12_07-12-12_07-12-12_06-12-12 1.1.1 11.541083750602002 -10.174996081362274
bao_29-03-12_29-03-12_08-12-12_08-12-12_09-12-12 1.1.1 12.101170015849998 -10.377995457728565
bao_29-03-12_29-03-12_08-12-12_09-12-12_09-12-12 1.1.1 11.79193311072 -11.279329416759824
bao_29-03-12_29-03-12_09-12-12_08-12-12_08-12-12 1.1.1 11.984017003225 -11.22987777885829
bao_29-03-12_29-03-12_09-12-12_09-12-12_08-12-12 1.1.1 11.687553433941 -10.263489282737982
bao_30-01-01_30-01-01_09-08-01_08-08-01_08-08-01 1.1.1 7.816461963474001 -10.937454532590865
bao_30-02-06_30-02-06_02-02-06_01-02-06_01-02-06 1.1.1 9.549713147935998 -7.728719564581016
bao_30-02-08_30-02-08_07-10-08_06-10-08_06-10-08 1.1.2 7.790057882747999 -11.540489939228593
bao_30-02-08_30-02-08_09-10-08_08-10-08_08-10-08 1.1.1 9.176114669508998 -11.744950774755662
bao_30-02-08_30-02-08_09-10-08_09-10-08_08-10-08 1.1.1 9.56776006158 -13.376609366156062
bao_30-03-12_30-03-12_06-12-12_06-12-12_06-12-12 1.1.2 13.367351448972004 -15.411380533681996
bap_29-05-09_29-05-09_02-03-09_02-03-09_02-03-09_02-03-09_02-03-09 1.1.1 15.655857814311 -7.134979704612633
bap_30-03-12_30-03-12_08-12-12_08-12-12_08-12-12_08-12-12_08-12-12 1.1.1 13.037520004389 -13.254490547077951
baq_30-02-06_30-02-06_01-02-06_01-02-06_01-02-06_01-02-06 1.1.1 18.700383046397 -5.785703337070402
baq_30-02-06_30-02-06_01-02-06_01-02-06_02-02-06_02-02-06 1.1.1 17.858157420919998 -5.994959426871831
baq_30-02-06_30-02-06_03-02-06_03-02-06_04-02-06_04-02-06 1.1.1 24.912817535508 -4.900640226347633
baq_30-02-06_30-02-06_04-02-06_03-02-06_04-02-06_04-02-06 1.1.1 24.526515796146 -5.448725892306569
baq_30-04-05_30-04-05_02-02-05_02-02-05_02-02-05_02-02-05 1.1.1 20.629468202016 -8.751344154155829
baq_30-04-05_30-04-05_03-02-05_03-02-05_03-02-05_03-02-05 1.1.1 28.321429602199995 -6.845220056337041
baq_30-04-05_30-04-05_04-02-05_04-02-05_04-02-05_04-02-05 1.1.1 26.57552359418401 -7.493144801783975
baq_31-02-04_29-02-04_04-03-04_04-03-04_04-03-04_04-03-04 1.1.1 29.344919710752 -5.598150812251699
baq_31-03-09_29-03-09_01-05-09_01-05-09_01-05-09_01-05-09 1.1.1 33.325957741299 -5.420484105397764
baq_31-03-12_29-03-12_06-12-12_06-12-12_06-12-12_06-12-12 1.1.1 21.232586881011 -7.163536770672232
baq_31-03-12_29-03-12_07-12-12_07-12-12_07-12-12_07-12-12 1.1.1 19.774771168900003 -8.256895691893838
baq_31-04-05_28-04-05_01-02-05_01-02-05_01-02-05_01-02-05 1.1.1 31.94312151432 -5.469314898856763
baq_31-04-05_28-04-05_02-02-05_02-02-05_02-02-05_02-02-05 1.1.1 27.614053797645006 -6.140690959984878
baq_31-04-05_29-04-05_02-02-05_02-02-05_02-02-05_02-02-05 1.1.1 28.871553940314 -6.8673466208634695
bas_28-01-01_28-01-01_07-08-01_07-08-01_07-08-01_07-08-01 1.1.1 10.87785300589 -7.333023652090868
bas_28-02-05_28-02-05_01-04-05_01-04-05_01-04-05_01-04-05 1.1.1 19.702612207282 -7.861586243521067
bas_28-02-06_28-02-06_01-02-06_01-02-06_01-02-06_02-02-06 1.1.1 16.902367107551996 -5.803952072041979
bas_28-02-06_28-02-06_03-02-06_04-02-06_04-02-06_03-02-06 1.1.1 21.86736815845201 -4.9716193263892166
bas_28-02-06_28-02-06_04-02-06_04-02-06_03-02-06_03-02-06 1.1.1 22.257088818447 -4.521454534256411
bas_29-02-06_29-02-06_02-02-06_01-02-06_02-02-06_02-02-06 1.1.1 16.964454659850002 -5.933466046915826
bas_29-02-06_29-02-06_03-02-06_03-02-06_03-02-06_03-02-06 1.1.1 25.3767399844 -5.604344505846574
bas_29-02-06_29-02-06_03-02-06_03-02-06_03-02-06_04-02-06 1.1.1 24.806844932920004 -5.127024631514453
bas_29-02-06_29-02-06_03-02-06_03-02-06_04-02-06_03-02-06 1.1.1 24.331325875331004 -5.669335918861482
bas_29-02-06_29-02-06_03-02-06_03-02-06_04-02-06_04-02-06 1.1.1 24.214266886050005 -5.076289148436051
bas_29-02-06_29-02-06_03-02-06_04-02-06_04-02-06_04-02-06 1.1.1 23.166425182626 -5.34336716543684
bas_29-02-06_29-02-06_04-02-06_04-02-06_03-02-06_04-02-06 1.1.1 23.000619834881995 -5.298976014788019
bas_29-05-09_29-05-09_04-03-09_04-03-09_04-03-09_04-03-09 1.1.1 23.614721542782 -6.236235432466091
bas_30-02-06_30-02-06_03-02-06_03-02-06_03-02-06_04-02-06 1.1.1 17.103937690917 -5.379910140010792
bas_30-03-09_30-03-09_05-05-09_05-05-09_05-05-09_05-05-09 1.1.1 25.312033585191 -5.788379218719479
bat_28-01-01_28-01-01_07-08-01_07-08-01_07-08-01_07-08-01_07-08-01 1.1.1 12.733350983483 -5.73116318182247
bat_28-01-01_28-01-01_09-08-01_09-08-01_09-08-01_09-08-01_09-08-01 1.1.1 13.18320716219 -7.896513481403556
bat_28-01-01_28-01-01_10-08-01_10-08-01_10-08-01_10-08-01_10-08-01 1.1.1 19.008769115901 -5.211215174343595
bat_28-02-05_28-02-05_03-04-05_03-04-05_03-04-05_03-04-05_03-04-05 1.1.1 28.914390581472 -5.8458155536328364
bat_28-02-05_28-02-05_05-04-05_05-04-05_05-04-05_05-04-05_05-04-05 1.1.1 33.517110142356 -4.333466718792203
bat_28-02-06_28-02-06_04-02-06_04-02-06_04-02-06_04-02-06_04-02-06 1.1.1 25.609771465629 -4.33403105219889
bat_28-02-08_28-02-08_07-10-08_07-10-08_07-10-08_07-10-08_07-10-08 1.1.1 13.355534241408002 -7.007458416990192
bat_28-03-09_28-03-09_01-05-09_01-05-09_01-05-09_01-05-09_01-05-09 1.1.1 22.735194781657 -6.398093783920928
bat_28-03-09_28-03-09_02-05-09_02-05-09_02-05-09_02-05-09_02-05-09 1.1.1 19.309478608500005 -5.768735473892952
bat_28-03-12_28-03-12_09-12-12_09-12-12_09-12-12_09-12-12_09-12-12 1.1.1 15.163726692051997 -10.277750519112544
bat_28-05-09_28-05-09_04-03-09_04-03-09_04-03-09_04-03-09_04-03-09 1.1.1 26.626107300525003 -6.458632980086414
bat_28-05-09_28-05-09_05-03-09_05-03-09_05-03-09_05-03-09_05-03-09 1.1.1 39.50695059336 -4.858284204894646
bat_29-01-01_29-01-01_06-08-01_06-08-01_06-08-01_06-08-01_06-08-01 1.1.1 14.942937625071998 -6.138793125811171
bat_29-02-06_29-02-06_04-02-06_04-02-06_04-02-06_04-02-06_04-02-06 1.1.1 27.488217833033 -4.658370809660322
bat_29-02-08_29-02-08_06-10-08_06-10-08_06-10-08_06-10-08_06-10-08 1.1.1 15.01022488257 -6.642428823064361
bat_29-03-09_29-03-09_02-05-09_02-05-09_02-05-09_02-05-09_02-05-09 1.1.1 20.374154583406003 -5.494690889194556
bat_29-03-12_29-03-12_06-12-12_06-12-12_06-12-12_06-12-12_06-12-12 1.1.1 16.783064767368003 -8.119018400465487
bat_29-03-12_29-03-12_09-12-12_09-12-12_09-12-12_09-12-12_09-12-12 1.1.1 15.7709346339 -9.656944963162507
bat_29-05-09_29-05-09_03-03-09_03-03-09_03-03-09_03-03-09_03-03-09 1.1.1 30.769451556876003 -5.4624035862677855
bat_29-05-09_29-05-09_05-03-09_05-03-09_05-03-09_05-03-09_05-03-09 1.1.1 41.10539238894 -4.606075630837322
bat_30-02-06_30-02-06_05-02-06_05-02-06_05-02-06_05-02-06_05-02-06 1.1.1 29.017136212684004 -4.834509878587352
bat_30-02-08_30-02-08_07-10-08_07-10-08_07-10-08_07-10-08_07-10-08 1.1.1 9.253965426713 -10.597235091626066
bat_30-03-09_30-03-09_02-05-09_02-05-09_02-05-09_02-05-09_02-05-09 1.1.1 15.424389226512 -8.486652108314374
bat_30-03-09_30-03-09_03-05-09_03-05-09_03-05-09_03-05-09_03-05-09 1.1.1 22.559886044825003 -6.965224396222189
bat_30-03-09_30-03-09_05-05-09_05-05-09_05-05-09_05-05-09_05-05-09 1.1.1 30.5534339063 -6.280017523449665
bat_30-04-05_30-04-05_01-02-05_01-02-05_01-02-05_01-02-05_01-02-05 1.1.1 19.561974036306 -9.67411566870468
bat_30-04-05_30-04-05_04-02-05_04-02-05_04-02-05_04-02-05_04-02-05 1.1.1 21.227203232424003 -8.010729356449144
baw_31-01-01_29-01-01_06-08-01_06-08-01_06-08-01_06-08-01_06-08-01 1.1.1 10.9763629958 -6.510071042517713
baz-a_28-04-05_16-04-05_28-04-05_16-04-05_02-02-05_02-02-05_02-02-05_02-02-05_02-02-05_02-02-05_02-02-05_02-02-05 1.1.1 42.18344433308 -4.276759559881161
baz-a_28-04-05_16-04-05_28-04-05_16-04-05_03-02-05_03-02-05_03-02-05_03-02-05_03-02-05_03-02-05_03-02-05_03-02-05 1.1.1 66.81159839788 -3.890572092603737
baz-a_28-04-05_16-04-05_28-04-05_16-04-05_04-02-05_04-02-05_04-02-05_04-02-05_04-02-05_04-02-05_04-02-05_04-02-05 1.1.1 60.823395606312 -4.143660570844272
baz_31-04-05_29-04-05_04-02-05_04-02-05_04-02-05 1.1.1 26.44378751439 -6.286193875700555
baz_31-04-05_29-04-05_05-02-05_05-02-05_05-02-05 1.1.1 38.039710982178 -5.156244688154209
bba_29-02-06_28-02-06_01-02-06_01-02-06_02-02-06 1.1.1 11.591995498162 -6.971189602300661
bba_29-02-06_28-02-06_04-02-06_03-02-06_03-02-06 1.1.1 15.078901059574996 -6.428840447981528
bbf_31-01-01_29-01-01_07-08-01_06-08-01 1.1.1 7.459704608690999 -8.346716475766966
bbf_31-02-04_29-02-04_01-03-04_01-03-04 1.1.1 9.82119639755 -8.896666928996526
bbf_31-03-12_29-03-12_08-12-12_09-12-12 1.1.1 11.167378119459002 -10.609384568717676
bbf_31-03-12_29-03-12_09-12-12_09-12-12 1.1.1 10.579625497584 -11.965388093992448
bbg_28-02-06_29-02-06_02-02-06_01-02-06_01-02-06 1.1.1 9.766823710506 -7.233615204974255
bbg_28-02-08_28-02-08_06-10-08_07-10-08_06-10-08 1.2.1 8.0286352248175 -8.76982032078821
bbg_28-03-12_28-03-12_07-12-12_07-12-12_06-12-12 1.2.1 10.2190049105325 -11.45275047060071
bbg_28-03-12_29-03-12_07-12-12_07-12-12_07-12-12 1.1.1 10.595798700486998 -11.29119946615292
bbg_28-04-05_29-04-05_04-02-05_04-02-05_04-02-05 1.1.1 14.3880489858 -7.394731653329673
bbg_29-02-06_28-02-06_01-02-06_01-02-06_01-02-06 1.1.1 10.712686642296 -6.595834749643874
bbg_29-02-08_29-02-08_09-10-08_08-10-08_08-10-08 1.1.1 8.809553449932 -9.117313595701113
bbg_30-03-12_30-03-12_06-12-12_07-12-12_07-12-12 2.2.1 16.033661243554498 -16.745523329517418
bbh_29-02-06_28-02-06_04-02-06_04-02-06_03-02-06 1.1.1 13.935404988925 -6.974105198747032
bbh_29-03-12_29-03-12_09-12-12_08-12-12_09-12-12 1.1.1 11.101257379863 -11.216116434860842
bbh_31-02-06_29-02-06_04-02-06_03-02-06_04-02-06 1.1.1 14.576161217288002 -5.778961639535582
bbk_31-05-09_29-05-09_03-03-09_03-03-09_03-03-09_03-03-09_03-03-09 1.1.1 15.2637446395 -6.595670990609439
bbm_28-01-01_29-01-01_10-08-01_10-08-01_10-08-01_10-08-01 1.1.1 11.176129318016 -6.252782252770787
bbn_31-01-01_29-01-01_09-08-01_09-08-01_09-08-01 1.1.1 11.711526509843996 -8.52026497305907
bbn_31-02-06_29-02-06_03-02-06_04-02-06_03-02-06 1.1.1 22.256239591021004 -5.549250911620483
bbn_31-02-06_29-02-06_04-02-06_03-02-06_03-02-06 1.1.1 21.600496624952 -5.654269434350115
bbn_31-03-12_29-03-12_08-12-12_08-12-12_08-12-12 1.1.1 14.875223638329995 -9.735615442790516
bbo_31-01-01_29-01-01_06-08-01_06-08-01_06-08-01_06-08-01 1.1.1 12.120695390605 -6.430542518102623
bbo_31-01-01_29-01-01_07-08-01_07-08-01_07-08-01_07-08-01 1.1.1 11.540138870169 -6.76388533250486
bbo_31-01-01_29-01-01_08-08-01_08-08-01_08-08-01_08-08-01 1.1.1 13.499165047431 -7.2467436046640925
bbo_31-01-01_29-01-01_09-08-01_09-08-01_09-08-01_09-08-01 1.1.1 12.084222561747998 -8.52844926483842
bbo_31-01-01_29-01-01_10-08-01_10-08-01_10-08-01_10-08-01 1.1.1 16.19041724925 -5.988586459792972
bbo_31-02-04_29-02-04_04-03-04_04-03-04_04-03-04_04-03-04 1.1.1 16.347064266847998 -6.985673916585219
bbo_31-02-04_29-02-04_05-03-04_05-03-04_05-03-04_05-03-04 1.1.1 24.704252696466007 -5.10117840094753
bbo_31-02-06_29-02-06_01-02-06_01-02-06_01-02-06_01-02-06 1.1.1 16.803414767120998 -6.843495624155378
bbo_31-02-06_29-02-06_02-02-06_02-02-06_02-02-06_02-02-06 1.1.1 14.327144664184 -5.688647306123893
bbo_31-02-06_29-02-06_03-02-06_03-02-06_03-02-06_03-02-06 1.1.1 21.333995488126003 -5.334988162058815
bbo_31-02-06_29-02-06_04-02-06_04-02-06_04-02-06_04-02-06 1.1.1 21.23446270232 -4.61697623131915
bbo_31-02-06_29-02-06_05-02-06_05-02-06_05-02-06_05-02-06 1.1.1 31.124492456443004 -4.822788061491155
bbo_31-02-08_28-02-08_06-10-08_06-10-08_06-10-08_06-10-08 1.1.1 11.921595909006 -7.262189027121176
bbo_31-02-08_29-02-08_07-10-08_07-10-08_07-10-08_07-10-08 1.1.1 12.22992877662 -7.432174513021104
bbo_31-02-08_29-02-08_08-10-08_08-10-08_08-10-08_08-10-08 1.1.1 13.668575791182002 -8.120562541161126
bbo_31-02-08_29-02-08_09-10-08_09-10-08_09-10-08_09-10-08 1.1.1 12.690004517663 -9.367940685963635
bbo_31-03-09_29-03-09_01-05-09_01-05-09_01-05-09_01-05-09 1.1.1 19.650464892765 -6.67045259225474
bbo_31-03-09_29-03-09_02-05-09_02-05-09_02-05-09_02-05-09 1.1.1 16.715057420854997 -5.743880948078382
bbo_31-03-09_29-03-09_03-05-09_03-05-09_03-05-09_03-05-09 1.1.1 24.361264507025997 -5.77325933893899
bbo_31-03-09_29-03-09_04-05-09_04-05-09_04-05-09_04-05-09 1.1.1 22.496116660488 -6.017907159707708
bbo_31-03-12_28-03-12_06-12-12_06-12-12_06-12-12_06-12-12 1.1.1 14.438178836184996 -10.698913318036444
bbo_31-03-12_29-03-12_06-12-12_06-12-12_06-12-12_06-12-12 1.1.1 14.389920522445005 -10.609498207506013
bbo_31-03-12_29-03-12_08-12-12_08-12-12_08-12-12_08-12-12 1.1.1 14.893347766322002 -8.74594126946087
bbo_31-03-12_29-03-12_09-12-12_09-12-12_09-12-12_09-12-12 1.1.1 13.737731579496003 -10.089895495057124
bbo_31-03-12_29-03-12_10-12-12_10-12-12_10-12-12_10-12-12 1.1.1 17.338534535322 -7.727142847501125
bbp_31-02-06_29-02-06_01-02-06_01-02-06_01-02-06 1.1.1 17.868081594888 -6.400192463803529
bbp_31-02-06_29-02-06_01-02-06_01-02-06_02-02-06 1.1.1 17.460729476147 -6.143383638050851
bbp_31-02-06_29-02-06_02-02-06_01-02-06_02-02-06 1.1.1 15.892179018342 -6.606525030536492
bbp_31-02-06_29-02-06_03-02-06_03-02-06_03-02-06 1.1.1 24.546949883904 -4.953237257750717
bbp_31-02-06_29-02-06_03-02-06_03-02-06_04-02-06 1.1.1 24.27447030984601 -5.88542254268808
bbp_31-02-06_29-02-06_03-02-06_04-02-06_04-02-06 1.1.1 23.305264940048 -5.330509592625127
bbp_31-02-06_29-02-06_04-02-06_04-02-06_03-02-06 1.1.1 22.499530412856004 -6.424897494392001
bbp_31-02-06_29-02-06_04-02-06_04-02-06_04-02-06 1.1.1 21.988067343192 -5.463681289676718
bbp_31-02-08_29-02-08_09-10-08_09-10-08_09-10-08 1.1.1 13.029240746807998 -9.078431621252427
bbp_31-02-08_29-02-08_10-10-08_10-10-08_10-10-08 1.1.1 16.838855876359997 -5.955805413451442
bbp_31-03-09_29-03-09_03-05-09_03-05-09_03-05-09 1.1.1 24.21420949689701 -5.322003260253521
bbp_31-03-09_29-03-09_05-05-09_05-05-09_05-05-09 1.1.1 32.594593660892 -5.138561134271109
bbp_31-03-12_29-03-12_07-12-12_07-12-12_07-12-12 1.1.1 14.42148159106 -9.121057391018224
bbp_31-03-12_29-03-12_08-12-12_08-12-12_08-12-12 1.1.1 15.316565237714004 -10.135318440503037
bbp_31-03-12_29-03-12_09-12-12_09-12-12_09-12-12 1.1.1 13.801354354944 -10.404604096127402
bbq_31-01-01_28-01-01_07-08-01_07-08-01_07-08-01_07-08-01 1.1.1 11.819058201522 -7.157238711415446
bbq_31-01-01_29-01-01_07-08-01_07-08-01_07-08-01_07-08-01 1.1.1 12.367742511564 -7.236009360482545
bbq_31-01-01_29-01-01_08-08-01_08-08-01_08-08-01_08-08-01 1.1.1 14.307634236789998 -7.2138376857204305
bbq_31-01-01_29-01-01_09-08-01_09-08-01_09-08-01_09-08-01 1.1.1 12.735237170126 -8.278615500893602
bbq_31-01-01_29-01-01_10-08-01_10-08-01_10-08-01_10-08-01 1.1.1 18.009909506335 -5.202365640056796
bbq_31-02-05_28-02-05_04-04-05_04-04-05_04-04-05_04-04-05 1.1.1 16.623536340008002 -8.542775882673801
bbq_31-02-06_29-02-06_01-02-06_01-02-06_01-02-06_01-02-06 1.1.1 18.733392760868 -5.840492765186929
bbq_31-02-06_29-02-06_02-02-06_02-02-06_02-02-06_02-02-06 1.1.1 16.65057486226 -5.414998766645218
bbq_31-02-06_29-02-06_03-02-06_03-02-06_03-02-06_03-02-06 1.1.1 23.713109342276 -5.163626596813783
bbq_31-02-06_29-02-06_05-02-06_05-02-06_05-02-06_05-02-06 1.1.1 34.705420055194 -4.6995001401987615
bbq_31-02-08_28-02-08_08-10-08_08-10-08_08-10-08_08-10-08 1.1.1 14.09635611601 -7.998745488379555
bbq_31-02-08_29-02-08_06-10-08_06-10-08_06-10-08_06-10-08 1.1.1 13.450455568927 -7.016967882452804
bbq_31-02-08_29-02-08_07-10-08_07-10-08_07-10-08_07-10-08 1.1.1 12.90406221432 -6.757030484803343
bbq_31-02-08_29-02-08_08-10-08_08-10-08_08-10-08_08-10-08 1.1.1 14.560993123629 -7.350414348166581
bbq_31-02-08_29-02-08_09-10-08_09-10-08_09-10-08_09-10-08 1.1.1 13.2311644704 -7.646867320647543
bbq_31-02-08_29-02-08_10-10-08_10-10-08_10-10-08_10-10-08 1.1.1 17.664196184591997 -6.166501638238065
bbq_31-03-09_29-03-09_01-05-09_01-05-09_01-05-09_01-05-09 1.1.1 21.246863073853 -5.838175808024304
bbq_31-03-09_29-03-09_02-05-09_02-05-09_02-05-09_02-05-09 1.1.1 18.30158169039 -6.908858089348463
bbq_31-03-12_29-03-12_06-12-12_06-12-12_06-12-12_06-12-12 1.1.1 15.314683733316 -9.118719829204682
bbq_31-03-12_29-03-12_08-12-12_08-12-12_08-12-12_08-12-12 1.1.1 15.696262406475 -9.513061452400333
bbq_31-03-12_29-03-12_09-12-12_09-12-12_09-12-12_09-12-12 1.1.1 14.421501544454 -9.190917833469634
bbq_31-03-12_29-03-12_10-12-12_10-12-12_10-12-12_10-12-12 1.1.1 19.137108190652 -6.554490611524822
bbq_31-05-09_29-05-09_03-03-09_03-03-09_03-03-09_03-03-09 1.1.1 26.946156041968 -5.398761127164246
bbq_31-05-09_29-05-09_04-03-09_04-03-09_04-03-09_04-03-09 1.1.1 25.244931238622996 -5.664331569806469
bbr_31-02-06_28-02-06_01-02-06_01-02-06_02-02-06 1.1.1 11.876088995475 -6.4310858403339815
bbr_31-03-12_29-03-12_08-12-12_08-12-12_08-12-12 1.1.1 12.399668444590002 -9.833461360651118
bbs_29-02-04_31-02-04_02-03-04_02-03-04_02-03-04 1.1.1 9.676887349462 -7.959450274524019
bbs_29-02-06_31-02-06_02-02-06_02-02-06_01-02-06 1.1.1 12.17812096395 -6.603452818282788
bbs_29-02-06_31-02-06_03-02-06_04-02-06_04-02-06 1.1.1 16.088208853616003 -5.849476763174797
bbs_29-02-06_31-02-06_04-02-06_03-02-06_04-02-06 1.1.1 16.297456916696998 -7.27241353762829
bbs_29-03-09_31-03-09_04-05-09_04-05-09_04-05-09 1.1.1 16.84613576528 -6.74549641987881
bbs_29-03-12_31-03-12_10-12-12_10-12-12_10-12-12 1.1.1 14.310943976868 -9.552326735092164
bbv_31-01-01_29-01-01_07-08-01_07-08-01_07-08-01 1.1.1 9.994610473670996 -7.659628876758759
bbv_31-02-04_29-02-04_05-03-04_05-03-04_05-03-04 1.1.1 20.840977805262 -6.150798614239288
bbv_31-02-06_29-02-06_03-02-06_03-02-06_03-02-06 1.1.1 19.439819465 -6.06065716451193
bbv_31-02-06_29-02-06_04-02-06_03-02-06_03-02-06 1.1.1 18.864024449347 -5.857055396979603
bbv_31-03-12_29-03-12_06-12-12_06-12-12_06-12-12 1.1.1 12.605359618362 -10.149168224406978
bbv_31-03-12_29-03-12_10-12-12_10-12-12_10-12-12 1.1.1 15.17952477604 -8.246273063268648
bbv_31-05-09_29-05-09_02-03-09_02-03-09_02-03-09 1.1.1 15.075996890976002 -7.85377420830671
bbw_29-01-01_31-01-01_07-08-01_07-08-01_07-08-01 1.1.1 11.631015084805002 -7.367533575637111
bbw_29-02-04_31-02-04_04-03-04_04-03-04_04-03-04 1.1.1 17.10055023795 -5.933337574083287
bbw_29-02-04_31-02-04_05-03-04_05-03-04_05-03-04 1.1.1 25.302607024070007 -5.3390034360581415
bbw_29-02-06_31-02-06_02-02-06_01-02-06_01-02-06 1.1.1 17.126809756506 -5.107089353083276
bbw_29-02-06_31-02-06_04-02-06_03-02-06_03-02-06 1.1.1 20.030392709199 -6.4764139047011495
bbw_29-02-08_31-02-08_06-10-08_06-10-08_06-10-08 1.1.1 12.987153907413996 -8.36484683876003
bbw_29-02-08_31-02-08_10-10-08_10-10-08_10-10-08 1.1.1 16.224871365725004 -6.271830001248175
bbw_29-05-09_31-05-09_03-03-09_03-03-09_03-03-09 1.1.1 24.159342761143 -5.9611788869835625
bbx_29-01-01_31-01-01_07-08-01_07-08-01_07-08-01 1.1.1 10.241620513398004 -8.151299151405425
bbx_29-01-01_31-01-01_09-08-01_09-08-01_09-08-01 1.1.1 10.794473394654998 -9.73854402306432
bbx_29-02-04_31-02-04_03-03-04_03-03-04_03-03-04 1.1.1 15.723189520116 -6.748315558071472
bbx_29-02-04_31-02-04_05-03-04_05-03-04_05-03-04 1.1.1 21.062144069294 -4.515992823851788
bbx_29-02-06_31-02-06_01-02-06_01-02-06_01-02-06 1.1.1 15.602225471100002 -6.616799179403386
bbx_29-02-06_31-02-06_01-02-06_01-02-06_02-02-06 1.1.1 14.656037042770002 -6.513924649877502
bbx_29-02-06_31-02-06_02-02-06_02-02-06_02-02-06 1.1.1 12.902118812772002 -6.859737647512628
bbx_29-02-06_31-02-06_03-02-06_03-02-06_04-02-06 1.1.1 19.82183206624201 -6.245715005657065
bbx_29-02-06_31-02-06_03-02-06_04-02-06_04-02-06 1.1.1 17.934367146002998 -5.826034960222783
bbx_29-02-06_31-02-06_04-02-06_03-02-06_04-02-06 1.1.1 18.882545213334005 -5.610562047861308
bbx_29-02-06_31-02-06_04-02-06_04-02-06_04-02-06 1.1.1 17.887173569399998 -7.0942143339066455
bbx_29-03-09_31-03-09_05-05-09_05-05-09_05-05-09 1.1.1 26.33143671120001 -5.186570472942842
bbx_29-03-12_31-03-12_09-12-12_09-12-12_09-12-12 1.1.1 11.813488307075 -10.244741566774248
bby_28-02-04_28-02-04_01-03-04_01-03-04_01-03-04_01-03-04_01-03-04_01-03-04 1.1.1 13.478792647717 -6.624424600472307
bby_28-02-04_28-02-04_02-03-04_02-03-04_02-03-04_02-03-04_02-03-04_02-03-04 1.1.1 11.129821667237 -6.809456670022744
bby_28-03-09_28-03-09_01-05-09_01-05-09_01-05-09_01-05-09_01-05-09_01-05-09 1.1.1 18.871454470810004 -5.891088580108669
bby_29-01-01_29-01-01_06-08-01_06-08-01_06-08-01_06-08-01_06-08-01_06-08-01 1.1.1 12.026535753049998 -6.219360057257079
bby_29-01-01_29-01-01_07-08-01_07-08-01_07-08-01_07-08-01_07-08-01_07-08-01 1.1.1 11.344562214018 -7.25400075274375
bby_29-01-01_29-01-01_08-08-01_08-08-01_08-08-01_08-08-01_08-08-01_08-08-01 1.1.1 13.097254830838 -6.791676439544915
bby_29-02-04_29-02-04_02-03-04_02-03-04_02-03-04_02-03-04_02-03-04_02-03-04 1.1.1 12.03587790048 -7.167082929775129
bby_29-02-04_29-02-04_04-03-04_04-03-04_04-03-04_04-03-04_04-03-04_04-03-04 1.1.1 17.132885531766 -6.468565465820648
bby_29-02-08_29-02-08_07-10-08_07-10-08_07-10-08_07-10-08_07-10-08_07-10-08 1.1.1 11.908370577464998 -7.3734624874789
bby_29-02-08_29-02-08_09-10-08_09-10-08_09-10-08_09-10-08_09-10-08_09-10-08 1.1.1 12.146033214934002 -9.607170443004788
bby_29-03-09_29-03-09_01-05-09_01-05-09_01-05-09_01-05-09_01-05-09_01-05-09 1.1.1 19.758157588562995 -6.783151443355255
bby_29-03-09_29-03-09_05-05-09_05-05-09_05-05-09_05-05-09_05-05-09_05-05-09 1.1.1 32.475320538059 -4.179550674253217
bby_29-03-12_29-03-12_06-12-12_06-12-12_06-12-12_06-12-12_06-12-12_06-12-12 1.1.1 14.248972752505004 -9.741361762284129
bby_29-03-12_29-03-12_07-12-12_07-12-12_07-12-12_07-12-12_07-12-12_07-12-12 1.1.1 13.807555819762 -9.416498719100751
bby_29-03-12_29-03-12_08-12-12_08-12-12_08-12-12_08-12-12_08-12-12_08-12-12 1.1.1 14.87011819332 -8.529390309384864
bby_29-03-12_29-03-12_09-12-12_09-12-12_09-12-12_09-12-12_09-12-12_09-12-12 1.1.1 13.585763039716005 -9.43242386466375
bby_29-04-05_29-04-05_04-02-05_04-02-05_04-02-05_04-02-05_04-02-05_04-02-05 1.1.1 23.58758039616 -6.911063993391952
bby_29-05-09_29-05-09_02-03-09_02-03-09_02-03-09_02-03-09_02-03-09_02-03-09 1.1.1 17.314121048595 -6.067915190940118
bby_30-03-12_30-03-12_06-12-12_06-12-12_06-12-12_06-12-12_06-12-12_06-12-12 1.1.1 14.162219970525005 -14.2516833477794
bby_30-05-09_30-05-09_04-03-09_04-03-09_04-03-09_04-03-09_04-03-09_04-03-09 1.1.1 16.663854967217002 -7.477742054377811
bbz_28-02-05_28-02-05_03-04-05_03-04-05_03-04-05_03-04-05_03-04-05 1.1.1 21.22460459138501 -6.059320131066272
bbz_28-02-08_28-02-08_10-10-08_10-10-08_10-10-08_10-10-08_10-10-08 1.1.1 14.308685377392 -6.150242139581229
bbz_29-01-01_29-01-01_08-08-01_08-08-01_08-08-01_08-08-01_08-08-01 1.1.1 12.226254378467 -7.036136402553854
bbz_29-01-01_29-01-01_10-08-01_10-08-01_10-08-01_10-08-01_10-08-01 1.1.1 15.173725434868002 -6.046407836632961
bbz_29-02-04_29-02-04_02-03-04_02-03-04_02-03-04_02-03-04_02-03-04 1.1.1 11.397885876432 -7.95380993720038
bbz_29-02-05_29-02-05_02-04-05_02-04-05_02-04-05_02-04-05_02-04-05 1.1.1 16.20661508956 -7.814546669126098
bbz_29-02-06_29-02-06_05-02-06_05-02-06_05-02-06_05-02-06_05-02-06 1.1.1 29.552447355602997 -5.123303985210455
bbz_29-02-06_29-02-06_None_None_None_None_None 1.1.2 11.2690010143875 -8.445366874404522
bbz_29-02-08_29-02-08_08-10-08_08-10-08_08-10-08_08-10-08_08-10-08 1.1.1 12.43625486682 -7.140802011717208
bbz_29-02-08_29-02-08_09-10-08_09-10-08_09-10-08_09-10-08_09-10-08 1.1.1 11.499767329699996 -8.679457507631192
bbz_29-03-04_29-03-04_03-02-04_03-02-04_03-02-04_03-02-04_03-02-04 1.1.1 16.983139221544 -5.216980149421932
bbz_29-03-12_29-03-12_08-12-12_08-12-12_08-12-12_08-12-12_08-12-12 1.1.1 14.30232001182 -10.04359968056731
bbz_29-03-12_29-03-12_09-12-12_09-12-12_09-12-12_09-12-12_09-12-12 1.1.1 13.189738700204998 -10.591844019058172
bbz_29-03-12_29-03-12_10-12-12_10-12-12_10-12-12_10-12-12_10-12-12 1.1.1 16.6446087738 -8.098854922113668
bbz_29-05-09_29-05-09_03-03-09_03-03-09_03-03-09_03-03-09_03-03-09 1.1.1 22.871231159688 -6.4996435888739725
bbz_30-02-05_30-02-05_01-04-05_01-04-05_01-04-05_01-04-05_01-04-05 1.1.1 15.797472956341998 -9.211865215068338
bbz_30-02-06_30-02-06_03-02-06_03-02-06_03-02-06_03-02-06_03-02-06 1.1.1 15.624628843824 -5.434383988873244
bbz_30-03-12_30-03-12_10-12-12_10-12-12_10-12-12_10-12-12_10-12-12 1.1.1 13.662768889471998 -10.301305882744732
bca_28-02-06_28-02-06_03-02-06_03-02-06_03-02-06_03-02-06_03-02-06_03-02-06 1.1.1 21.946599391008 -4.62065140181082
bca_30-01-01_30-01-01_09-08-01_09-08-01_09-08-01_09-08-01_09-08-01_09-08-01 1.1.1 9.552828957721 -12.867329935407067
bcb_28-01-01_28-01-01_08-08-01_08-08-01_08-08-01_08-08-01_08-08-01 1.1.1 10.057869527966 -7.597831678340536
bcb_30-04-05_30-04-05_02-02-05_02-02-05_02-02-05_02-02-05_02-02-05 1.1.1 12.537609736118002 -10.432787186460828
bcd_29-02-04_29-02-04_01-03-04_01-03-04_01-03-04_01-03-04_01-03-04_01-03-04 1.1.1 12.776334191616 -7.733452883770752
bcf_28-02-04_28-02-04_02-03-04_02-03-04_02-03-04_02-03-04_02-03-04_02-03-04_02-03-04 1.1.1 10.145462902935 -6.645432069942264
bcf_28-03-09_28-03-09_02-05-09_02-05-09_02-05-09_02-05-09_02-05-09_02-05-09_02-05-09 1.1.1 14.485449291066002 -8.123586527711392
bcf_29-01-01_29-01-01_06-08-01_06-08-01_06-08-01_06-08-01_06-08-01_06-08-01_06-08-01 1.1.1 10.90374870441 -6.43460067552286
bcf_29-01-01_29-01-01_08-08-01_08-08-01_08-08-01_08-08-01_08-08-01_08-08-01_08-08-01 1.1.1 11.773087253928002 -6.559116792247378
bcf_29-01-01_29-01-01_09-08-01_09-08-01_09-08-01_09-08-01_09-08-01_09-08-01_09-08-01 1.1.1 10.790776770672 -8.545252625931141
bcf_29-01-01_29-01-01_10-08-01_10-08-01_10-08-01_10-08-01_10-08-01_10-08-01_10-08-01 1.1.1 14.523985250163 -5.479845159853287
bcf_29-02-04_29-02-04_03-03-04_03-03-04_03-03-04_03-03-04_03-03-04_03-03-04_03-03-04 1.1.1 16.60587908441 -6.463271999083783
bcf_29-02-04_29-02-04_05-03-04_05-03-04_05-03-04_05-03-04_05-03-04_05-03-04_05-03-04 1.1.1 22.570317650688008 -4.290853642151169
bcf_29-02-06_29-02-06_03-02-06_03-02-06_03-02-06_03-02-06_03-02-06_03-02-06_03-02-06 1.1.1 20.948949553068005 -5.157134361517484
bcf_29-02-08_29-02-08_06-10-08_06-10-08_06-10-08_06-10-08_06-10-08_06-10-08_06-10-08 1.1.1 11.172401529224 -7.142154406828782
bcf_29-02-08_29-02-08_08-10-08_08-10-08_08-10-08_08-10-08_08-10-08_08-10-08_08-10-08 1.1.1 12.057551091417002 -8.020153503916617
bcf_29-02-08_29-02-08_10-10-08_10-10-08_10-10-08_10-10-08_10-10-08_10-10-08_10-10-08 1.1.1 14.587088193782996 -5.729777512761359
bcf_29-03-12_29-03-12_07-12-12_07-12-12_07-12-12_07-12-12_07-12-12_07-12-12_07-12-12 1.1.1 12.898356349614998 -9.187067113322652
bcf_29-03-12_29-03-12_08-12-12_08-12-12_08-12-12_08-12-12_08-12-12_08-12-12_08-12-12 1.1.1 13.877710208091 -9.871107209680916
bcf_29-03-12_29-03-12_09-12-12_09-12-12_09-12-12_09-12-12_09-12-12_09-12-12_09-12-12 1.1.1 13.04025838589 -11.013051593494422
bcf_29-03-12_29-03-12_10-12-12_10-12-12_10-12-12_10-12-12_10-12-12_10-12-12_10-12-12 1.1.1 16.104140297036 -7.077608590176562
bcf_29-04-05_29-04-05_05-02-05_05-02-05_05-02-05_05-02-05_05-02-05_05-02-05_05-02-05 1.1.1 28.743599176550003 -6.082331816775835
bcf_29-05-09_29-05-09_01-03-09_01-03-09_01-03-09_01-03-09_01-03-09_01-03-09_01-03-09 1.1.1 17.957132730508 -7.48249357270038
bcf_30-03-12_30-03-12_06-12-12_06-12-12_06-12-12_06-12-12_06-12-12_06-12-12_06-12-12 1.1.1 14.149953496648005 -15.13259297529732
bcf_30-04-05_30-04-05_04-02-05_04-02-05_04-02-05_04-02-05_04-02-05_04-02-05_04-02-05 1.1.1 17.142919584384003 -9.513487261656866
bcf_30-04-05_30-04-05_05-02-05_05-02-05_05-02-05_05-02-05_05-02-05_05-02-05_05-02-05 1.1.1 22.545603120906 -7.25704606666169
bcf_30-05-09_30-05-09_01-03-09_01-03-09_01-03-09_01-03-09_01-03-09_01-03-09_01-03-09 1.1.1 13.954976771119998 -7.829224045609812
bcj_28-04-05_28-04-05_02-02-05_02-02-05_02-02-05_02-02-05 1.1.1 23.67981461625 -5.570302085252293
bcm_28-01-01_28-01-01_06-08-01_07-08-01_06-08-01 1.1.1 6.939009045186 -7.803225580727042
bcm_28-02-06_29-02-06_03-02-06_04-02-06_03-02-06 1.1.1 13.602143649612 -6.269591991905314
bcm_28-02-06_29-02-06_04-02-06_03-02-06_03-02-06 1.1.1 13.051756136999998 -6.769745203093674
bcm_28-02-08_29-02-08_06-10-08_06-10-08_06-10-08 1.1.1 7.865222623367999 -9.021497690232763
bcm_29-01-01_29-01-01_06-08-01_07-08-01_06-08-01 1.1.1 7.589509097056999 -8.478341387707081
bcm_29-01-01_29-01-01_07-08-01_06-08-01_07-08-01 1.1.1 7.38117630159 -8.79708241492348
bcm_29-02-08_29-02-08_06-10-08_07-10-08_06-10-08 1.1.1 8.19089492067 -8.683507744841853
bcm_29-02-08_29-02-08_08-10-08_09-10-08_08-10-08 1.1.1 8.950691750442001 -9.081095121174908
bcm_29-02-08_29-02-08_09-10-08_09-10-08_08-10-08 1.1.1 8.465596462360002 -10.161016229412462
bcm_29-03-12_29-03-12_07-12-12_06-12-12_07-12-12 1.1.1 10.594527393867002 -11.042208946639006
bcm_30-01-01_30-01-01_08-08-01_08-08-01_09-08-01 2.2.1 7.53046051875 -11.581454033430417
bcn_28-01-01_29-01-01_07-08-01_07-08-01_07-08-01_07-08-01 1.1.1 7.820764271375999 -8.291330694164897
bcn_28-02-04_29-02-04_01-03-04_01-03-04_01-03-04_01-03-04 1.1.1 9.831387812400004 -8.411091573355776
bcn_29-02-06_29-02-06_04-02-06_04-02-06_04-02-06_03-02-06 1.1.1 11.936564422051 -7.032249504015523
bcn_30-02-06_30-02-06_02-02-06_01-02-06_02-02-06_01-02-06 1.1.1 7.507235131121999 -8.685256333417932
bcp_29-01-01_31-01-01_06-08-01_06-08-01_06-08-01_06-08-01 1.1.1 8.353111478805 -7.81728253513476
bcp_29-02-04_31-02-04_02-03-04_02-03-04_02-03-04_02-03-04 1.1.1 8.388092940092 -8.605560558540013
bcp_29-02-04_31-02-04_03-03-04_03-03-04_03-03-04_03-03-04 1.1.1 11.888480226925 -7.399904184130116
bcp_29-02-08_31-02-08_06-10-08_06-10-08_06-10-08_06-10-08 1.1.1 8.652130879987 -9.472486072346651
bcp_29-02-08_31-02-08_07-10-08_07-10-08_07-10-08_07-10-08 1.1.1 8.58859820028 -8.410837955870184
bcp_29-03-09_31-03-09_01-05-09_01-05-09_01-05-09_01-05-09 1.1.1 13.438627632290997 -8.74774891546347
bcp_29-03-12_31-03-12_06-12-12_06-12-12_06-12-12_06-12-12 1.1.1 11.141853173084998 -10.996447591364923
bcp_29-03-12_31-03-12_07-12-12_07-12-12_07-12-12_07-12-12 1.1.1 10.780370858403996 -10.886512539786454
bcp_29-04-05_31-04-05_05-02-05_05-02-05_05-02-05_05-02-05 1.1.1 18.610491548031995 -6.547028104235695
bcp_29-05-09_31-05-09_04-03-09_04-03-09_04-03-09_04-03-09 1.1.1 14.950657720830002 -6.298909254335081
bcp_30-02-08_30-02-08_09-10-08_09-10-08_09-10-08_09-10-08 1.2.1 7.440569569117501 -14.243014067694247
bcq_29-02-06_29-02-06_01-02-06_01-02-06_01-02-06_01-02-06 1.1.1 13.146274116612 -5.955565866838821
bcr_28-05-09_29-05-09_02-03-09_02-03-09_02-03-09_02-03-09 1.1.1 15.732020385044995 -8.237921673903802
bcr_28-05-09_29-05-09_04-03-09_04-03-09_04-03-09_04-03-09 1.1.1 20.35724562185 -8.003404731579815
bcr_29-04-05_28-04-05_01-02-05_01-02-05_01-02-05_01-02-05 1.1.1 19.410501177432 -8.175865317525522
bcr_29-04-05_28-04-05_02-02-05_02-02-05_02-02-05_02-02-05 1.1.1 16.428050143855 -6.998862450459519
bcr_29-04-05_29-04-05_01-02-05_01-02-05_01-02-05_01-02-05 1.1.1 20.02419931393 -7.603092841417116
bcr_29-04-05_29-04-05_02-02-05_02-02-05_02-02-05_02-02-05 1.1.1 17.557421071858 -7.27666317799935
bcr_29-04-05_29-04-05_03-02-05_03-02-05_03-02-05_03-02-05 1.1.1 24.458971188155004 -6.5436385884230335
bcu-f_17-08-01_01-01-01_01-01-01_01-01-01 1.1.1 8.259503935914001 -10.34602805486509
bcu-g_11-02-06_03-02-06_03-02-06_03-02-06 1.1.2 9.446264388568 -12.495573999659124
bcu-g_11-03-12_08-12-12_08-12-12_08-12-12 2.2.1 13.948301926266002 -24.682221384971456
bcu-g_12-03-04_02-02-04_02-02-04_02-02-04 2.1.1 9.84313253812 -16.329444851837728
bcu-g_13-02-05_02-04-05_02-04-05_02-04-05 2.2.1 10.0479568211675 -13.606968882382644
bcu-g_13-03-09_02-05-09_02-05-09_02-05-09 1.1.1 9.969819378103 -10.179943018291157
bcu-g_13-03-09_05-05-09_05-05-09_05-05-09 1.1.1 11.356178951843 -9.516327124056154
bcu-g_13-05-09_01-03-09_01-03-09_01-03-09 1.1.1 11.806555698382 -10.408864138786726
[...]
zeb_29-03-12_29-03-12_31-03-12_10-12-12_10-12-12_10-12-12_10-12-12_10-12-12_10-12-12_10-12-12_10-12-12_10-12-12 1.1.1 15.871781599408 -7.963085851847511
zhc_2_02-01-01_3_21-08-01_4_25-08-01 1.1.1 12.606399356112 -6.449783950748923
zhc_2_02-03-04_3_16-02-04_4_31-02-04 1.1.1 10.85436424976 -6.417685191328787
zhc_2_02-03-09_3_16-05-09_4_31-05-09 1.1.1 15.755652594400006 -7.756704154476038
zhc_2_02-03-12_3_21-12-12_4_25-12-12 1.1.1 13.303815208361002 -9.447048840783491
zhc_2_04-01-01_3_21-08-01_4_25-08-01 1.1.1 16.68549943676 -5.7284703584795205
zhc_2_05-02-08_3_21-10-08_4_25-10-08 1.1.1 25.212589120080008 -5.463831278344566
zhc_2_06-12-12_3_16-03-12_4_31-03-12 1.1.1 13.069830526664004 -9.019595097710464
zhc_2_07-12-12_3_16-03-12_4_31-03-12 1.1.1 12.362707657038 -8.250639514939595
zhc_2_09-08-01_3_16-01-01_4_31-01-01 1.1.1 10.656494121021002 -6.851298084104203
zhc_2_09-10-08_3_16-02-08_4_31-02-08 1.1.1 10.988564670304 -8.308024499354982
zjz-a_16-01-01_16-01-01_16-01-01_16-01-01_16-01-01_06-08-01_06-08-01_06-08-01_06-08-01_06-08-01_06-08-01_06-08-01_06-08-01 1.1.1 30.62107301096 -4.25487188938503
zjz-a_16-03-12_16-03-12_16-03-12_16-03-12_16-03-12_06-12-12_06-12-12_06-12-12_06-12-12_06-12-12_06-12-12_06-12-12_06-12-12 1.1.1 30.005716639856004 -5.6120151244448175
zjz-a_16-03-12_16-03-12_16-03-12_16-03-12_16-03-12_07-12-12_07-12-12_07-12-12_07-12-12_07-12-12_07-12-12_07-12-12_07-12-12 1.1.1 28.144869491928 -4.9875244938008585
zjz-a_19-10-08_19-10-08_19-10-08_19-10-08_19-10-08_02-02-08_02-02-08_02-02-08_02-02-08_02-02-08_02-02-08_02-02-08_02-02-08 1.1.1 24.727411359035003 -4.919039080609791
zjz-a_23-12-12_23-12-12_23-12-12_23-12-12_23-12-12_02-03-12_02-03-12_02-03-12_02-03-12_02-03-12_02-03-12_02-03-12_02-03-12 1.1.1 24.635963375485 -5.648816456090101
zjz-a_35-11-03_35-11-03_35-11-03_35-11-03_35-11-03_04-01-03_04-01-03_04-01-03_04-01-03_04-01-03_04-01-03_04-01-03_04-01-03 1.1.1 20.19381708996 -6.014157938857395
zjz-a_36-11-11_36-11-11_36-11-11_36-11-11_36-11-11_04-07-11_04-07-11_04-07-11_04-07-11_04-07-11_04-07-11_04-07-11_04-07-11 1.1.1 17.63430015849 -5.694083889687439
zme_14-02-05_13-02-05_04-04-05_04-04-05_04-04-05 1.1.1 30.900960413818 -5.384036411817451
zme_16-02-06_16-02-06_04-02-06_03-02-06_03-02-06 1.1.1 27.304714073626 -4.753346324419487
zme_16-02-06_16-02-06_04-02-06_04-02-06_03-02-06 1.1.1 25.760044924290003 -4.74190746253797
zmj_21-08-01_21-08-01_25-08-01_25-08-01_02-01-01_02-01-01_02-01-01_02-01-01_02-01-01 1.1.1 12.237839521635 -6.281510277987529
zni_28-01-01_06-08-01_07-08-01_06-08-01 1.1.1 6.87209028021 -10.169413996448608
zni_28-01-01_07-08-01_07-08-01_07-08-01 1.1.1 6.61087013664 -9.754871905608631
zni_28-01-01_08-08-01_08-08-01_08-08-01 1.1.1 7.582108012050001 -9.695632336168892
zni_28-01-01_09-08-01_09-08-01_08-08-01 1.1.1 7.799921530254 -11.01067356771705
zni_28-01-01_09-08-01_09-08-01_09-08-01 1.1.1 8.328001799694 -13.99546499341082
zni_28-02-08_06-10-08_07-10-08_06-10-08 1.1.1 7.740391661238 -10.568473812159542
zni_28-02-08_07-10-08_07-10-08_07-10-08 1.1.1 7.826472531144 -11.64629999425762
zni_28-02-08_08-10-08_09-10-08_08-10-08 1.1.1 9.370273443648 -13.257219485547722
zni_28-02-08_09-10-08_08-10-08_09-10-08 1.1.1 8.621894320480001 -12.068615661920612
zni_28-02-08_09-10-08_09-10-08_09-10-08 1.1.1 9.267073286634 -12.918132073174933
zni_28-03-09_02-05-09_02-05-09_02-05-09 1.1.1 9.276285243995998 -9.635110122461429
zni_28-03-12_09-12-12_09-12-12_09-12-12 1.1.1 11.037157214184 -15.84833379093497
zni_29-01-01_07-08-01_07-08-01_07-08-01 1.1.1 7.039884676546 -10.419664519871692
zni_29-01-01_08-08-01_08-08-01_08-08-01 1.1.1 7.903924201173002 -9.733749852703294
zni_29-01-01_09-08-01_08-08-01_09-08-01 1.1.1 8.000085223565 -10.754231509254888
zni_29-01-01_09-08-01_09-08-01_09-08-01 1.1.1 8.336230746378998 -11.930044304159429
zni_29-01-01_10-08-01_10-08-01_10-08-01 1.1.1 8.422906578807 -7.7846203594539105
zni_29-02-04_03-03-04_03-03-04_03-03-04 1.1.1 9.790446419215 -8.744708241083439
zni_29-02-04_05-03-04_05-03-04_05-03-04 1.1.1 11.920162097616 -8.207156296799084
zni_29-02-08_06-10-08_06-10-08_06-10-08 1.1.1 7.916835405798001 -10.012400935949668
zni_29-02-08_06-10-08_07-10-08_06-10-08 1.1.1 7.745031228600001 -9.777780234901249
zni_29-02-08_06-10-08_07-10-08_07-10-08 1.1.1 7.826338142399999 -10.678908592782433
zni_29-02-08_07-10-08_07-10-08_07-10-08 1.1.1 7.793844293509998 -9.618000601351106
zni_29-02-08_08-10-08_08-10-08_08-10-08 1.1.1 8.521705327980001 -9.356467356708151
zni_29-02-08_09-10-08_09-10-08_09-10-08 1.1.1 8.983194643984 -12.503386248541704
zni_29-02-08_10-10-08_10-10-08_10-10-08 1.1.1 8.856722485739999 -8.058233750437667
zni_29-03-12_06-12-12_06-12-12_07-12-12 1.1.1 10.816405124184 -12.29721270667627
zni_29-03-12_08-12-12_08-12-12_08-12-12 1.1.1 10.721165263083002 -11.798189467388813
zni_29-03-12_09-12-12_08-12-12_09-12-12 1.1.1 10.761340450185 -16.57869295530449
zni_29-03-12_09-12-12_09-12-12_08-12-12 1.1.1 10.693360684251004 -15.073705337081057
zni_29-03-12_10-12-12_10-12-12_10-12-12 1.1.1 10.913431371280002 -10.096893920907988
zni_29-05-09_01-03-09_01-03-09_01-03-09 1.1.1 11.358120546952 -9.457570876333222
zni_29-05-09_02-03-09_02-03-09_02-03-09 1.1.1 9.978014782671 -10.679449891631412
zni_29-05-09_05-03-09_05-03-09_05-03-09 1.1.1 15.466474698332 -7.34697115699033
zni_30-01-01_06-08-01_07-08-01_06-08-01 1.1.1 8.007327171438003 -16.809156395174266
zni_30-01-01_07-08-01_07-08-01_06-08-01 1.1.1 7.454579834262001 -16.627511660443805
zni_30-01-01_07-08-01_07-08-01_07-08-01 1.1.1 6.156959803980999 -16.613899416805467
zni_30-01-01_08-08-01_08-08-01_08-08-01 1.1.1 8.971191539891999 -16.321916114822542
zni_30-01-01_08-08-01_09-08-01_08-08-01 1.1.1 11.112564631824 -18.155328234230872
zni_30-01-01_10-08-01_10-08-01_10-08-01 1.1.1 6.975485383649999 -9.885665520792942
zni_30-02-08_06-10-08_06-10-08_06-10-08 1.1.1 12.480358122333998 -22.573938437393718
zni_30-02-08_07-10-08_06-10-08_06-10-08 1.1.1 11.57542005033 -20.11945921319446
zni_30-02-08_07-10-08_07-10-08_06-10-08 1.1.1 10.219413999816 -19.561965700496643
zni_30-02-08_07-10-08_07-10-08_07-10-08 1.1.1 8.332532929325 -19.185374769093823
zni_30-02-08_08-10-08_08-10-08_08-10-08 1.1.1 10.847455616048002 -18.624604851067343
zni_30-02-08_08-10-08_08-10-08_09-10-08 1.1.1 9.27857743779 -20.22016171096905
zni_30-02-08_09-10-08_08-10-08_09-10-08 1.1.1 10.767015899668 -20.851265653039107
zni_30-02-08_09-10-08_09-10-08_09-10-08 1.1.1 11.114715490316 -21.326244074451807
zni_30-02-08_10-10-08_10-10-08_10-10-08 1.1.1 8.17304421726 -11.180179081206491
zni_30-03-09_05-05-09_05-05-09_05-05-09 1.1.1 12.52353031851 -8.416103638447206
zni_30-03-12_06-12-12_06-12-12_06-12-12 1.1.1 14.242509737504 -27.16885392900343
zni_30-03-12_06-12-12_06-12-12_07-12-12 1.1.1 11.748687218111998 -24.616892875762897
zni_30-03-12_07-12-12_07-12-12_07-12-12 1.1.1 12.030140117544 -25.510011711261743
zni_30-03-12_08-12-12_08-12-12_09-12-12 1.1.1 15.295177772216 -19.004644614591992
zni_30-03-12_08-12-12_09-12-12_09-12-12 1.1.1 9.773835564751998 -25.375140822154314
zni_30-03-12_09-12-12_08-12-12_08-12-12 1.1.1 13.789901697096 -22.02937463403425
zni_30-03-12_09-12-12_09-12-12_09-12-12 1.1.1 9.848908735146 -23.804902604493076
zra-d_28-02-06_28-02-06_28-02-06_28-02-06_28-02-06_04-02-06_04-02-06_04-02-06_04-02-06_04-02-06_04-02-06_04-02-06_04-02-06 1.1.1 15.020898304531997 -6.114329447434742
zra-d_28-03-12_28-03-12_28-03-12_28-03-12_28-03-12_06-12-12_06-12-12_06-12-12_06-12-12_06-12-12_06-12-12_06-12-12_06-12-12 1.1.1 11.336346688783 -10.398827609958548
zra-d_28-03-12_28-03-12_28-03-12_28-03-12_28-03-12_09-12-12_09-12-12_09-12-12_09-12-12_09-12-12_09-12-12_09-12-12_09-12-12 1.1.1 11.147641724329 -11.199570225044017
zra-d_29-01-01_29-01-01_29-01-01_29-01-01_29-01-01_09-08-01_09-08-01_09-08-01_09-08-01_09-08-01_09-08-01_09-08-01_09-08-01 1.1.1 9.212842384032 -9.182129659607492
zra-d_29-02-06_29-02-06_29-02-06_29-02-06_29-02-06_02-02-06_02-02-06_02-02-06_02-02-06_02-02-06_02-02-06_02-02-06_02-02-06 1.1.1 11.805037134504005 -6.922132765800455
zra-d_29-02-08_29-02-08_29-02-08_29-02-08_29-02-08_08-10-08_08-10-08_08-10-08_08-10-08_08-10-08_08-10-08_08-10-08_08-10-08 1.1.1 10.303807847859002 -7.942959332652107
zra-d_29-03-12_29-03-12_29-03-12_29-03-12_29-03-12_10-12-12_10-12-12_10-12-12_10-12-12_10-12-12_10-12-12_10-12-12_10-12-12 1.1.1 13.64217942309 -8.554496716489183
zul_29-01-01_31-01-01_16-01-01_06-08-01_06-08-01_06-08-01_06-08-01_06-08-01_06-08-01 1.1.1 9.622907768902998 -7.386066687108625
zul_29-01-01_31-01-01_16-01-01_07-08-01_07-08-01_07-08-01_07-08-01_07-08-01_07-08-01 1.1.1 9.2291929328 -8.23599712370804
zul_29-01-01_31-01-01_16-01-01_08-08-01_08-08-01_08-08-01_08-08-01_08-08-01_08-08-01 1.1.1 10.573495013667 -7.825083470104409
zul_29-01-01_31-01-01_16-01-01_09-08-01_09-08-01_09-08-01_09-08-01_09-08-01_09-08-01 1.1.1 9.66917288853 -8.47849929155569
zul_29-01-01_31-01-01_16-01-01_10-08-01_10-08-01_10-08-01_10-08-01_10-08-01_10-08-01 1.1.1 12.639881922492002 -5.268756829859731
zul_29-02-06_31-02-06_16-02-06_01-02-06_01-02-06_01-02-06_01-02-06_01-02-06_01-02-06 1.1.1 14.754300004941 -5.728963380999308
zul_29-02-06_31-02-06_16-02-06_02-02-06_02-02-06_02-02-06_02-02-06_02-02-06_02-02-06 1.1.1 12.426222334863995 -5.775919344551746
zul_29-02-06_31-02-06_16-02-06_04-02-06_04-02-06_04-02-06_04-02-06_04-02-06_04-02-06 1.1.1 17.10746287584 -6.3686796727753885
zul_29-02-06_31-02-06_16-02-06_05-02-06_05-02-06_05-02-06_05-02-06_05-02-06_05-02-06 1.1.1 23.95260321108 -5.5393438416319976
zul_29-02-06_31-02-06_16-02-06_None_None_None_None_None_None 1.1.1 9.558087881864 -9.675379968168484
zul_29-02-08_31-02-08_16-02-08_06-10-08_06-10-08_06-10-08_06-10-08_06-10-08_06-10-08 1.1.1 10.022750038344 -7.095497587236193
zul_29-02-08_31-02-08_16-02-08_07-10-08_07-10-08_07-10-08_07-10-08_07-10-08_07-10-08 1.1.1 9.570594488598 -8.031370590546517
zul_29-02-08_31-02-08_16-02-08_08-10-08_08-10-08_08-10-08_08-10-08_08-10-08_08-10-08 1.1.1 10.978643069745 -8.056729434184668
zul_29-02-08_31-02-08_16-02-08_09-10-08_09-10-08_09-10-08_09-10-08_09-10-08_09-10-08 1.1.1 10.22560929299 -9.293472359180596
zul_29-02-08_31-02-08_16-02-08_10-10-08_10-10-08_10-10-08_10-10-08_10-10-08_10-10-08 1.1.1 13.058449370397 -6.786011173868068
zul_29-03-12_31-03-12_16-03-12_06-12-12_06-12-12_06-12-12_06-12-12_06-12-12_06-12-12 1.1.1 12.048049239547 -9.630485035254589
zul_29-03-12_31-03-12_16-03-12_07-12-12_07-12-12_07-12-12_07-12-12_07-12-12_07-12-12 1.1.1 11.123702670639998 -9.73184150712648
zul_29-03-12_31-03-12_16-03-12_08-12-12_08-12-12_08-12-12_08-12-12_08-12-12_08-12-12 1.1.1 12.269781564216006 -9.396443938823502
zul_29-03-12_31-03-12_16-03-12_09-12-12_09-12-12_09-12-12_09-12-12_09-12-12_09-12-12 1.1.1 11.407255672519998 -10.995939770176744
zul_29-03-12_31-03-12_16-03-12_10-12-12_10-12-12_10-12-12_10-12-12_10-12-12_10-12-12 1.1.1 14.373951929144 -7.712553717873111
zul_30-04-05_30-04-05_12-04-05_01-02-05_01-02-05_01-02-05_01-02-05_01-02-05_01-02-05 1.1.1 14.39754291844 -10.2790662967665
zul_30-04-05_30-04-05_12-04-05_03-02-05_03-02-05_03-02-05_03-02-05_03-02-05_03-02-05 1.1.1 15.934035327732 -7.874653680533963
zxd_11-01-01_11-01-01_07-08-01_07-08-01_07-08-01 1.1.3 3.5238379527707635 -24.42334716325332
zxd_11-01-01_11-01-01_09-08-01_09-08-01_09-08-01 1.1.2 2.721676984932001 -24.66354347597552
zxd_11-01-01_12-01-01_06-08-01_06-08-01_06-08-01 1.1.3 5.590429617493744 -28.439195962837264
zxd_11-02-08_11-02-08_09-10-08_09-10-08_09-10-08 1.1.2 5.496831531913 -26.85701724915854
zxd_11-02-08_12-02-08_07-10-08_07-10-08_07-10-08 1.1.1 7.195089121723998 -9.055910338866209
zxd_11-03-04_12-03-04_02-02-04_02-02-04_02-02-04 1.1.1 7.488783299255998 -8.405864875076029
zxd_11-03-09_12-03-09_01-05-09_01-05-09_01-05-09 1.1.1 13.847653508096998 -8.184687896274927
zxd_11-03-12_12-03-12_07-12-12_07-12-12_07-12-12 1.1.2 10.009635525513 -30.274177973250744
zxd_11-03-12_12-03-12_09-12-12_09-12-12_09-12-12 1.1.2 8.660487697340999 -24.571074632561576
zxd_12-01-01_12-01-01_09-08-01_09-08-01_09-08-01 1.1.1 9.05477758818 -11.542499229037888
zxd_12-02-08_11-02-08_08-10-08_08-10-08_08-10-08 1.1.1 9.614359209905 -11.1393158418199
zxd_12-03-04_12-03-04_02-02-04_02-02-04_02-02-04 1.1.1 7.792785406168 -9.112263419774994
zxd_13-01-01_13-01-01_09-08-01_09-08-01_09-08-01 1.1.1 12.355342557768 -5.789451167850833
zxd_13-02-04_14-02-04_02-03-04_02-03-04_02-03-04 1.1.1 12.454448134368 -5.967128738899488
zxd_13-02-08_13-02-08_09-10-08_09-10-08_09-10-08 1.1.1 12.508050716406 -7.225762483530891
zxd_13-03-04_13-03-04_03-02-04_03-02-04_03-02-04 1.1.1 17.6512526301 -5.683966842283652
zxd_13-05-09_14-05-09_03-03-09_03-03-09_03-03-09 1.1.1 21.429358684875 -5.243306922257789
zxd_14-02-05_14-02-05_03-04-05_03-04-05_03-04-05 1.1.1 22.552016119614 -5.829307534316613
zxd_14-03-12_13-03-12_07-12-12_07-12-12_07-12-12 1.1.1 12.284223851679998 -7.424567781699182
zxd_14-03-12_13-03-12_09-12-12_09-12-12_09-12-12 1.1.1 12.063172863472 -8.659613518593801
zxd_14-03-12_14-03-12_09-12-12_09-12-12_09-12-12 1.1.1 12.069556291995 -8.397437312993704
zxd_14-04-05_14-04-05_01-02-05_01-02-05_01-02-05 1.1.1 20.45890013706 -5.987540984482062
zxd_14-05-09_13-05-09_05-03-09_05-03-09_05-03-09 1.1.1 35.07648732762 -5.022042406247549
zxd_15-03-09_15-03-09_02-05-09_02-05-09_02-05-09 1.1.1 22.672424075825003 -4.551536842383218
zxd_16-01-01_16-01-01_07-08-01_07-08-01_07-08-01 1.1.1 9.565639675552 -5.978565716527003
zxd_16-02-06_16-02-06_03-02-06_04-02-06_03-02-06 1.1.1 20.517014310398004 -5.16265653345321
zxd_16-02-06_16-02-06_04-02-06_03-02-06_04-02-06 1.1.1 19.17758602362 -5.115429938091034
zxd_16-03-12_16-03-12_09-12-12_09-12-12_09-12-12 1.1.1 10.111181020185002 -9.87879696394734
zxd_16-05-09_16-05-09_05-03-09_05-03-09_05-03-09 1.1.1 28.174037894496 -5.171388681348703
zxd_17-12-12_17-12-12_02-03-12_02-03-12_02-03-12 1.1.2 11.4479053090325 -32.55313845264026
zxd_20-10-08_20-10-08_01-02-08_01-02-08_01-02-08 1.1.5 3.5097344737055995 -26.18636316286649
zxd_20-10-08_20-10-08_02-02-08_02-02-08_02-02-08 1.1.1 12.096065331855002 -6.484611021089849
zxd_20-12-12_21-12-12_05-03-12_05-03-12_05-03-12 1.1.1 24.573267641899 -5.587544449488554
zxd_21-10-08_21-10-08_01-02-08_01-02-08_01-02-08 1.1.1 12.688945450076 -7.819789506724023
zxd_21-12-12_20-12-12_02-03-12_02-03-12_02-03-12 1.1.1 11.60082163399 -9.392792772561636
zxd_21-12-12_20-12-12_05-03-12_05-03-12_05-03-12 1.1.1 23.290622792243003 -5.495939409128675
zxd_22-08-01_22-08-01_02-01-01_02-01-01_02-01-01 1.1.1 12.256579211316 -7.355446544044792
zxd_23-08-01_18-08-01_04-01-01_04-01-01_04-01-01 1.1.1 12.726188573257998 -6.274484089707558
zxd_23-08-01_23-08-01_02-01-01_02-01-01_02-01-01 1.1.2 9.689794809777 -14.532874705614166
zxd_23-08-01_23-08-01_04-01-01_04-01-01_04-01-01 1.1.2 9.526342359677 -13.206061408008308
zxd_23-10-08_23-10-08_04-02-08_04-02-08_04-02-08 1.1.2 11.212568679386004 -14.323124414787785
zxd_23-12-12_23-12-12_04-03-12_04-03-12_04-03-12 1.1.1 14.506525088909996 -7.329170937462826
zxd_33-11-02_33-11-02_01-01-02_01-01-02_01-01-02 1.1.3 3.880962859310785 -27.16579754995897
zxd_33-11-02_33-11-02_03-01-02_04-01-02_04-01-02 1.1.3 4.826327136572429 -26.45546393218832
zxd_34-11-10_34-11-10_01-06-10_01-06-10_02-06-10 1.1.2 4.5628648428715 -29.96937161656657
zxd_34-11-10_34-11-10_01-06-10_02-06-10_02-06-10 1.1.1 11.762323775180002 -15.89228294562119
zxd_34-11-10_34-11-10_02-06-10_01-06-10_01-06-10 1.1.1 12.331846148466004 -14.660534833656266
zxd_35-11-03_35-11-03_02-01-03_01-01-03_02-01-03 1.1.2 14.7461330726645 -24.114265023932692
zxd_35-11-03_35-11-03_03-01-03_03-01-03_04-01-03 1.1.2 15.687961812658 -19.94855291855178
zxd_35-11-03_35-11-03_05-01-03_05-01-03_05-01-03 1.1.1 14.670122176649995 -7.167891238527682
zxd_36-11-11_36-11-11_04-07-11_04-07-11_03-07-11 1.1.1 7.438628028059998 -9.18912158944257
zyg-a_11-02-04_11-02-04_11-02-04_11-02-04_05-03-04_05-03-04_05-03-04_05-03-04_05-03-04_05-03-04_05-03-04 1.1.1 43.113746494584 -4.123466798131171
zyg-a_11-04-05_11-04-05_11-04-05_11-04-05_03-02-05_03-02-05_03-02-05_03-02-05_03-02-05_03-02-05_03-02-05 1.1.1 40.286275499444 -5.955688923475897
zyg-a_13-03-04_13-03-04_13-03-04_13-03-04_03-02-04_03-02-04_03-02-04_03-02-04_03-02-04_03-02-04_03-02-04 1.1.1 49.81043078324999 -4.0484730791420045
zyg-a_16-02-04_16-02-04_16-02-04_16-02-04_02-03-04_02-03-04_02-03-04_02-03-04_02-03-04_02-03-04_02-03-04 1.1.1 23.12381761469 -4.032635481830496
zyg-a_16-02-04_16-02-04_16-02-04_16-02-04_04-03-04_04-03-04_04-03-04_04-03-04_04-03-04_04-03-04_04-03-04 1.1.1 36.099332272765 -4.681109271592405
zyg-a_16-02-06_16-02-06_16-02-06_16-02-06_03-02-06_03-02-06_03-02-06_03-02-06_03-02-06_03-02-06_03-02-06 1.1.1 57.338644991298 -3.28579236189482
zyg-a_16-02-08_16-02-08_16-02-08_16-02-08_08-10-08_08-10-08_08-10-08_08-10-08_08-10-08_08-10-08_08-10-08 1.1.1 24.42806785336 -5.483889406716799
zyg-a_16-03-12_16-03-12_16-03-12_16-03-12_10-12-12_10-12-12_10-12-12_10-12-12_10-12-12_10-12-12_10-12-12 1.1.1 33.72953455381899 -5.02650692047954
zyg-a_18-08-01_18-08-01_18-08-01_18-08-01_03-01-01_03-01-01_03-01-01_03-01-01_03-01-01_03-01-01_03-01-01 1.1.1 26.693572293975997 -4.587058327111147
zyg-a_18-12-12_18-12-12_18-12-12_18-12-12_03-03-12_03-03-12_03-03-12_03-03-12_03-03-12_03-03-12_03-03-12 1.1.1 29.88636214927 -5.499017368704264
zyg-a_20-08-01_20-08-01_20-08-01_20-08-01_01-01-01_01-01-01_01-01-01_01-01-01_01-01-01_01-01-01_01-01-01 1.1.1 31.353789946501003 -4.511283841194834
zyg-a_21-12-12_21-12-12_21-12-12_21-12-12_03-03-12_03-03-12_03-03-12_03-03-12_03-03-12_03-03-12_03-03-12 1.1.1 35.758623320449004 -5.96908273152454
zyg-a_23-12-12_23-12-12_23-12-12_23-12-12_02-03-12_02-03-12_02-03-12_02-03-12_02-03-12_02-03-12_02-03-12 1.1.1 18.417891560497 -8.085676903994727
zyg-a_32-02-04_32-02-04_32-02-04_32-02-04_02-03-04_02-03-04_02-03-04_02-03-04_02-03-04_02-03-04_02-03-04 1.1.1 18.04027041921 -5.704446077054203
zyg-a_32-02-05_32-02-05_32-02-05_32-02-05_01-04-05_01-04-05_01-04-05_01-04-05_01-04-05_01-04-05_01-04-05 1.1.1 35.21489108716 -5.998147328320921
zyg-a_32-02-08_32-02-08_32-02-08_32-02-08_09-10-08_09-10-08_09-10-08_09-10-08_09-10-08_09-10-08_09-10-08 1.1.1 19.534799441198 -6.174234923668116
zyg-a_32-03-12_32-03-12_32-03-12_32-03-12_08-12-12_08-12-12_08-12-12_08-12-12_08-12-12_08-12-12_08-12-12 1.1.1 18.963651275608 -6.077890061895995
zyg_15-02-06_14-02-06_24-02-06_01-02-06_02-02-06 1.1.1 17.870085364649 -4.692986203741606
zyg_16-02-06_16-02-06_31-02-06_02-02-06_01-02-06 1.1.1 14.163766120539002 -6.126455712592266
zyg_16-03-04_16-03-04_31-03-04_02-02-04_02-02-04 1.1.1 9.579327636879 -6.6029741777237145
zyg_16-03-04_16-03-04_31-03-04_05-02-04_05-02-04 1.1.1 20.657558679006 -4.844222932246703
zyg_16-04-05_16-04-05_31-04-05_02-02-05_02-02-05 1.1.1 14.522066660088004 -7.1580974563073205
zyg_16-05-09_16-05-09_31-05-09_01-03-09_01-03-09 1.1.1 16.460574876724003 -7.182591580737119
zyg_16-05-09_16-05-09_31-05-09_04-03-09_04-03-09 1.1.1 18.292040226404 -6.639377720879045
zyg_16-05-09_16-05-09_31-05-09_05-03-09_05-03-09 1.1.1 25.328088250158 -4.847665131074655
zyg_21-10-08_21-10-08_25-10-08_04-02-08_04-02-08 1.1.1 15.053626915468 -6.021898370287146
zyg_21-12-12_21-12-12_25-12-12_04-03-12_04-03-12 1.1.1 15.595299371583998 -6.604311607560812
zyl_16-01-01_16-01-01_29-01-01_06-08-01_06-08-01_06-08-01_06-08-01 1.1.1 9.786099146592 -6.516424827402773
zyl_16-01-01_16-01-01_29-01-01_08-08-01_08-08-01_08-08-01_08-08-01 1.1.1 10.64057799993 -6.498717794428597
zyl_16-01-01_16-01-01_29-01-01_09-08-01_09-08-01_09-08-01_09-08-01 1.1.1 9.725401210763998 -7.710182986424943
zyl_16-02-05_16-02-05_29-02-05_03-04-05_03-04-05_03-04-05_03-04-05 1.1.1 20.149053851992 -6.30595546780655
zyl_16-02-06_16-02-06_29-02-06_01-02-06_01-02-06_01-02-06_01-02-06 1.1.1 15.610929771421002 -6.323513808305941
zyl_16-02-08_16-02-08_29-02-08_06-10-08_06-10-08_06-10-08_06-10-08 1.1.1 10.296232291611 -6.94409404984008
zyl_16-02-08_16-02-08_29-02-08_09-10-08_09-10-08_09-10-08_09-10-08 1.1.1 9.927819548251 -8.190008828591537
zyl_16-05-09_16-05-09_29-05-09_02-03-09_02-03-09_02-03-09_02-03-09 1.1.1 14.261770351807998 -7.249704452867987
