data_n2_ads
_audit_aif_version 63df4e8
_exptl_method GCMC
_exptl_adsorptive n2
_exptl_temperature 298
_adsorp_pressure 1000000
_simltn_code RASPA 2.0.41
_simltn_date 2023-04-13T02:32:06.481819904
_simltn_forcefield_adsorptive uff
_simltn_forcefield_adsorbent mm3
_units_temperature K
_units_pressure Pa
_units_loading mol/kg
_units_enthalpy kJ/mol

loop_
_adsnt_material_id
_simltn_size
_adsorp_amount_absolute
_adsorp_enthalpy
abf_28-04-05_28-04-05_16-04-05_03-02-05_03-02-05_03-02-05 1.1.1 20.664598959577003 -2.8456072710259948
abf_30-02-06_30-02-06_14-02-06_03-02-06_03-02-06_02-02-06 1.1.1 20.557338712533 -2.784238954846106
abf_30-02-06_30-02-06_14-02-06_04-02-06_04-02-06_02-02-06 1.1.1 17.1467692443 -2.999702445452644
abr_28-01-01_28-01-01_29-01-01_06-08-01_06-08-01_06-08-01 1.1.1 5.00458873829 -3.825632712118692
abr_28-01-01_29-01-01_28-01-01_07-08-01_07-08-01_07-08-01 1.1.1 4.4252315078 -3.6576605175048
abr_28-02-06_29-02-06_29-02-06_04-02-06_04-02-06_04-02-06 1.1.1 10.409003843656 -3.256504173248524
abr_28-02-08_29-02-08_28-02-08_07-10-08_07-10-08_07-10-08 1.1.1 4.488747301488999 -4.062727660477558
abr_28-03-12_28-03-12_29-03-12_06-12-12_06-12-12_06-12-12 1.1.1 4.183299347465001 -3.868728237029853
abr_28-03-12_28-03-12_29-03-12_07-12-12_07-12-12_07-12-12 1.1.1 3.953486232014 -4.009460869192141
abr_28-03-12_29-03-12_29-03-12_09-12-12_09-12-12_09-12-12 1.1.1 4.128565960824001 -4.272667674715475
abr_29-01-01_29-01-01_28-01-01_09-08-01_09-08-01_09-08-01 1.1.1 4.418073728549 -4.42777295561346
abr_29-01-01_29-01-01_29-01-01_06-08-01_06-08-01_07-08-01 1.1.1 5.059331627088 -3.728591167110239
abr_29-01-01_29-01-01_29-01-01_06-08-01_07-08-01_06-08-01 1.1.1 4.867878834575 -3.81531801990494
abr_29-01-01_29-01-01_29-01-01_06-08-01_07-08-01_07-08-01 1.1.1 4.817685146455999 -3.623903538570311
abr_29-01-01_29-01-01_29-01-01_07-08-01_06-08-01_06-08-01 1.1.1 5.005033328880001 -3.686468644811793
abr_29-01-01_29-01-01_29-01-01_07-08-01_06-08-01_07-08-01 1.1.1 4.825210441068 -3.6667619358801904
abr_29-01-01_29-01-01_29-01-01_07-08-01_07-08-01_06-08-01 1.1.1 4.896199327358 -3.949078338697521
abr_29-01-01_29-01-01_29-01-01_08-08-01_08-08-01_09-08-01 1.1.1 5.26477196422 -3.666557020121096
abr_29-01-01_29-01-01_29-01-01_08-08-01_09-08-01_08-08-01 1.1.1 4.690414151922 -4.012919163937082
abr_29-01-01_29-01-01_29-01-01_08-08-01_09-08-01_09-08-01 1.1.1 4.694098904376 -4.008408773882926
abr_29-01-01_29-01-01_29-01-01_09-08-01_08-08-01_08-08-01 1.1.1 5.257875845586001 -3.5860808489534595
abr_29-01-01_29-01-01_29-01-01_09-08-01_08-08-01_09-08-01 1.1.1 4.973259409867 -3.6456347348822886
abr_29-01-01_29-01-01_29-01-01_09-08-01_09-08-01_08-08-01 1.1.1 4.629571983242999 -4.085577513635987
abr_29-01-01_29-01-01_29-01-01_09-08-01_09-08-01_09-08-01 1.1.1 4.4817070304160005 -4.261011437186651
abr_29-02-04_29-02-04_29-02-04_02-03-04_02-03-04_02-03-04 1.1.1 4.827602262418001 -3.7873761413112215
abr_29-02-06_29-02-06_29-02-06_04-02-06_03-02-06_03-02-06 1.1.1 10.659419775539998 -3.0304120234508587
abr_29-02-06_29-02-06_29-02-06_04-02-06_03-02-06_04-02-06 1.1.1 10.113188315967 -3.397701182588969
abr_29-02-08_28-02-08_29-02-08_06-10-08_06-10-08_06-10-08 1.1.1 4.830631471908 -3.866937973468045
abr_29-02-08_29-02-08_29-02-08_06-10-08_06-10-08_07-10-08 1.1.1 4.8586211708130005 -3.937918663897389
abr_29-02-08_29-02-08_29-02-08_06-10-08_07-10-08_06-10-08 1.1.1 4.6345434470510005 -3.9330894580068994
abr_29-02-08_29-02-08_29-02-08_06-10-08_07-10-08_07-10-08 1.1.1 4.610685859884 -3.8369687087570337
abr_29-02-08_29-02-08_29-02-08_07-10-08_06-10-08_06-10-08 1.1.1 4.700102975136001 -3.6589788974605697
abr_29-02-08_29-02-08_29-02-08_07-10-08_06-10-08_07-10-08 1.1.1 4.784256309894 -4.16509096219558
abr_29-02-08_29-02-08_29-02-08_07-10-08_07-10-08_06-10-08 1.1.1 4.493066820813 -3.8076015120623232
abr_29-02-08_29-02-08_29-02-08_08-10-08_08-10-08_09-10-08 1.1.1 5.0943799437080015 -3.6910654938257297
abr_29-02-08_29-02-08_29-02-08_08-10-08_09-10-08_08-10-08 1.1.1 4.783655145699999 -4.228876929296242
abr_29-02-08_29-02-08_29-02-08_08-10-08_09-10-08_09-10-08 1.1.1 4.527123999815 -4.101206352257971
abr_29-02-08_29-02-08_29-02-08_09-10-08_08-10-08_08-10-08 1.1.1 5.013622767878 -3.6981486148644738
abr_29-02-08_29-02-08_29-02-08_09-10-08_08-10-08_09-10-08 1.1.1 4.892050258448001 -4.020533221311829
abr_29-02-08_29-02-08_29-02-08_09-10-08_09-10-08_08-10-08 1.1.1 4.553876655989999 -4.202381244052618
abr_29-02-08_29-02-08_29-02-08_09-10-08_09-10-08_09-10-08 1.1.1 4.327500716478 -4.232769895185447
abr_29-02-08_29-02-08_29-02-08_10-10-08_10-10-08_10-10-08 1.1.1 7.10641283717 -3.4869353823923
abr_29-03-12_29-03-12_29-03-12_06-12-12_06-12-12_07-12-12 1.1.1 4.282449506247 -3.661003812421393
abr_29-03-12_29-03-12_29-03-12_06-12-12_07-12-12_06-12-12 1.1.1 4.283203174595999 -4.212515538650904
abr_29-03-12_29-03-12_29-03-12_06-12-12_07-12-12_07-12-12 1.1.1 4.2296299823 -3.911161666513884
abr_29-03-12_29-03-12_29-03-12_07-12-12_06-12-12_06-12-12 1.1.1 4.345849156594 -3.434877458056011
abr_29-03-12_29-03-12_29-03-12_07-12-12_06-12-12_07-12-12 1.1.1 4.2777994512 -4.048895710359977
abr_29-03-12_29-03-12_29-03-12_07-12-12_07-12-12_06-12-12 1.1.1 4.112651415093 -4.301383619528859
abr_29-03-12_29-03-12_29-03-12_08-12-12_08-12-12_09-12-12 1.1.1 4.717649357496 -3.394296321244596
abr_29-03-12_29-03-12_29-03-12_08-12-12_09-12-12_08-12-12 1.1.1 4.414755390902999 -4.401698559695879
abr_29-03-12_29-03-12_29-03-12_08-12-12_09-12-12_09-12-12 1.1.1 4.299818748641999 -4.101025987582461
abr_29-03-12_29-03-12_29-03-12_09-12-12_08-12-12_08-12-12 1.1.1 4.506817393167 -3.878663189854656
abr_29-03-12_29-03-12_29-03-12_09-12-12_08-12-12_09-12-12 1.1.1 4.463975154099 -3.97842452808801
abr_29-03-12_29-03-12_29-03-12_09-12-12_09-12-12_08-12-12 1.1.1 4.281983532761999 -4.1968685716783405
abr_29-05-09_29-05-09_29-05-09_03-03-09_03-03-09_03-03-09 1.1.1 11.13630204712 -2.968747488125953
abr_30-01-01_30-01-01_30-01-01_08-08-01_09-08-01_09-08-01 1.1.1 2.5036202752649994 -5.973288591578482
abr_30-02-08_30-02-08_30-02-08_08-10-08_09-10-08_09-10-08 1.1.1 2.602067158908 -5.826336050506973
abr_30-03-12_30-03-12_30-03-12_08-12-12_09-12-12_09-12-12 1.1.1 2.485494162636 -6.611159116054239
acs-a_29-02-08_10-10-08_10-10-08_10-10-08 1.1.1 10.29725895339 -3.534661549722808
acs-a_29-05-09_05-03-09_05-03-09_05-03-09 1.1.1 22.659685398738 -2.8631318360218883
acs-a_30-01-01_09-08-01_09-08-01_08-08-01 1.1.1 3.250986076707 -4.754318655828838
acs-f_12-03-09_01-05-09_01-05-09_01-05-09 3.2.2 0.3389277922804408 -13.98934595457062
acs-f_14-01-01_10-08-01_10-08-01_10-08-01 1.1.1 3.572460015415999 -4.032372990251266
acs-f_14-02-04_02-03-04_02-03-04_02-03-04 1.1.1 2.8889666759920005 -4.453004473842959
acs-f_14-02-06_None_None_None 1.1.2 2.434935804652 -5.566334045403262
acs-f_14-03-12_09-12-12_09-12-12_09-12-12 1.1.1 2.376787213923 -5.122422153723184
acs-f_16-01-01_06-08-01_06-08-01_06-08-01 1.1.1 2.772335145748 -5.007630190044283
acs-f_16-02-06_03-02-06_04-02-06_04-02-06 1.1.1 3.4225583017920007 -4.418642868699464
acs-f_16-02-06_05-02-06_05-02-06_05-02-06 1.1.1 6.916960927336001 -3.2699840628461034
acs-f_17-08-01_05-01-01_05-01-01_05-01-01 2.1.1 3.720643362899 -4.490571122494453
acs-f_17-12-12_01-03-12_01-03-12_01-03-12 2.2.1 1.5634639957805 -7.137852231726332
acs-f_33-11-02_03-01-02_03-01-02_03-01-02 2.2.1 1.9198953735412505 -6.200160697866314
acs-f_33-11-02_04-01-02_04-01-02_03-01-02 2.2.1 1.960925122759 -6.842437045259574
acs-f_36-11-11_03-07-11_04-07-11_04-07-11 2.2.1 1.8842632736 -7.111777346928374
acs-g_11-03-12_09-12-12_09-12-12_09-12-12 1.1.2 2.6165977959375 -6.181146227514251
acs-g_35-11-03_02-01-03_02-01-03_01-01-03 1.1.5 1.6133558409583997 -7.743106531060197
aea-a_28-02-08_28-02-08_16-02-08_16-02-08_07-10-08_07-10-08_07-10-08_07-10-08_07-10-08_07-10-08_07-10-08_07-10-08_07-10-08 1.1.1 7.341777544596002 -3.3124581003413955
aea-a_28-04-05_28-04-05_16-04-05_16-04-05_02-02-05_02-02-05_02-02-05_02-02-05_02-02-05_02-02-05_02-02-05_02-02-05_02-02-05 1.1.1 10.535315290993 -3.04173341378738
aea-a_28-04-05_28-04-05_16-04-05_16-04-05_03-02-05_03-02-05_03-02-05_03-02-05_03-02-05_03-02-05_03-02-05_03-02-05_03-02-05 1.1.1 18.615560576 -2.9044428569357352
aea-a_30-01-01_30-01-01_11-01-01_11-01-01_08-08-01_08-08-01_08-08-01_08-08-01_08-08-01_08-08-01_08-08-01_08-08-01_08-08-01 1.1.1 4.290463965678 -4.04498630975161
aea-a_30-01-01_30-01-01_11-01-01_11-01-01_10-08-01_10-08-01_10-08-01_10-08-01_10-08-01_10-08-01_10-08-01_10-08-01_10-08-01 1.1.1 7.059060959265 -3.3764043878325123
aea-a_30-02-06_30-02-06_11-02-06_11-02-06_02-02-06_02-02-06_02-02-06_02-02-06_02-02-06_02-02-06_02-02-06_02-02-06_02-02-06 1.1.1 6.346740764448 -3.627619677902445
aea-a_30-02-08_30-02-08_11-02-08_11-02-08_06-10-08_06-10-08_06-10-08_06-10-08_06-10-08_06-10-08_06-10-08_06-10-08_06-10-08 1.1.1 4.19758797491 -3.981339938725138
aea-a_30-05-09_30-05-09_11-05-09_11-05-09_04-03-09_04-03-09_04-03-09_04-03-09_04-03-09_04-03-09_04-03-09_04-03-09_04-03-09 1.1.1 11.758704505471998 -3.252577120974998
afi_28-02-06_04-02-06_04-02-06_03-02-06_04-02-06 1.1.1 10.126924732925998 -3.0559615715538797
afi_30-03-09_03-05-09_03-05-09_03-05-09_03-05-09 1.1.1 7.999171937750001 -3.1438364970485706
afw-a_28-04-05_28-04-05_02-02-05_02-02-05_02-02-05_02-02-05_02-02-05_02-02-05 1.1.1 13.68802610179 -3.1035613522386343
afw_28-02-04_02-03-04_01-03-04 1.1.1 5.041242039294 -3.930895934837197
afw_29-02-04_01-03-04_02-03-04 1.1.1 5.454223070894 -3.647310514853552
afw_29-02-08_06-10-08_06-10-08 1.1.1 4.950096262530001 -3.6968880206497863
afw_29-03-12_06-12-12_06-12-12 1.1.1 4.381715226 -3.926414948447175
afw_30-05-09_01-03-09_02-03-09 1.1.1 4.473571784733 -3.822858877895647
afx_29-03-12_29-03-12_08-12-12_08-12-12_08-12-12_08-12-12_08-12-12_08-12-12_08-12-12 1.1.1 5.98252811235 -3.655045169484069
afy_30-01-01_30-01-01_09-08-01_09-08-01_09-08-01_09-08-01_09-08-01 1.1.1 3.1016566364190004 -5.531310927495481
afy_30-03-12_30-03-12_09-12-12_09-12-12_09-12-12_09-12-12_09-12-12 1.1.1 2.9442072805549997 -4.876853640006582
agw-a_28-02-04_16-02-04_16-02-04_16-02-04_02-03-04_02-03-04_02-03-04_02-03-04_02-03-04_02-03-04_02-03-04_02-03-04 1.1.1 14.371315975923 -3.107399058933036
agw-a_28-02-06_16-02-06_16-02-06_16-02-06_01-02-06_01-02-06_01-02-06_01-02-06_01-02-06_01-02-06_01-02-06_01-02-06 1.1.1 26.32605025062 -2.861857649237168
agw-a_28-02-06_16-02-06_16-02-06_16-02-06_03-02-06_03-02-06_03-02-06_03-02-06_03-02-06_03-02-06_03-02-06_03-02-06 1.1.1 38.036076530091 -2.635959440603618
agw-a_28-02-08_16-02-08_16-02-08_16-02-08_06-10-08_06-10-08_06-10-08_06-10-08_06-10-08_06-10-08_06-10-08_06-10-08 1.1.1 14.405640604705996 -3.058727075791854
agw-a_28-02-08_16-02-08_16-02-08_16-02-08_09-10-08_09-10-08_09-10-08_09-10-08_09-10-08_09-10-08_09-10-08_09-10-08 1.1.1 12.378160525066 -3.145050498260893
agw-a_28-03-04_16-03-04_16-03-04_16-03-04_01-02-04_01-02-04_01-02-04_01-02-04_01-02-04_01-02-04_01-02-04_01-02-04 1.1.1 17.210751201270003 -3.0075888335757006
agw-a_28-03-12_16-03-12_16-03-12_16-03-12_09-12-12_09-12-12_09-12-12_09-12-12_09-12-12_09-12-12_09-12-12_09-12-12 1.1.1 11.826993563207996 -3.071623322265352
agw-a_30-03-09_11-03-09_11-03-09_11-03-09_02-05-09_02-05-09_02-05-09_02-05-09_02-05-09_02-05-09_02-05-09_02-05-09 1.1.1 12.054052565828002 -3.105149905136004
agw-a_30-03-09_12-03-09_12-03-09_12-03-09_01-05-09_01-05-09_01-05-09_01-05-09_01-05-09_01-05-09_01-05-09_01-05-09 1.1.1 14.739457610456004 -2.854826875160948
agw-a_30-03-12_12-03-12_12-03-12_12-03-12_06-12-12_06-12-12_06-12-12_06-12-12_06-12-12_06-12-12_06-12-12_06-12-12 1.1.1 5.84431600145 -3.979829410436915
alb-x-d_28-01-01_29-01-01_28-01-01_07-08-01_07-08-01_07-08-01_07-08-01 1.1.1 4.975439669999999 -3.7429998723534808
alb-x-d_28-02-08_29-02-08_28-02-08_10-10-08_10-10-08_10-10-08_10-10-08 1.1.1 7.678349868854001 -3.443807326695079
alb-x-d_28-03-12_29-03-12_28-03-12_09-12-12_09-12-12_09-12-12_09-12-12 1.1.1 4.343963348109001 -4.518624269173055
alb-x-d_29-02-06_29-02-06_29-02-06_01-02-06_01-02-06_02-02-06_02-02-06 1.1.1 8.596915975377998 -3.198311494900841
alb-x-d_29-02-06_29-02-06_29-02-06_03-02-06_03-02-06_04-02-06_04-02-06 1.1.1 12.145795176684 -3.1858677213096285
alb-x-d_29-02-06_29-02-06_29-02-06_03-02-06_04-02-06_04-02-06_04-02-06 1.1.1 11.464410519700005 -3.125975270869272
alb-x-d_29-02-06_29-02-06_29-02-06_04-02-06_03-02-06_04-02-06_03-02-06 1.1.1 12.007127532024 -2.9033930505458407
alb-x-d_29-03-12_28-03-12_29-03-12_06-12-12_06-12-12_06-12-12_06-12-12 1.1.1 4.696346229713 -3.7125132566137737
ana-b_28-02-04_30-02-04_02-03-04_02-03-04_02-03-04_02-03-04 1.1.1 3.488047676666 -3.87144353155234
ana-b_28-02-06_30-02-06_05-02-06_05-02-06_05-02-06_05-02-06 1.1.1 12.669386227479 -3.077528534881111
ana-b_28-02-08_29-02-08_09-10-08_09-10-08_09-10-08_09-10-08 1.1.1 4.399586929967999 -4.507650652296635
ana-b_28-02-08_30-02-08_09-10-08_09-10-08_09-10-08_09-10-08 1.1.1 3.2351206534420003 -5.05595426331705
ana-b_28-03-12_30-03-12_06-12-12_06-12-12_06-12-12_06-12-12 1.1.1 3.134101075859 -4.147793716053834
ana-b_28-03-12_30-03-12_07-12-12_07-12-12_07-12-12_07-12-12 1.1.1 3.021788431752 -4.512343122229603
ana-b_28-03-12_30-03-12_09-12-12_09-12-12_09-12-12_09-12-12 1.1.1 3.1261044510850007 -5.2636571725739385
ana-b_28-04-05_30-04-05_02-02-05_02-02-05_02-02-05_02-02-05 1.1.1 5.188983906735 -3.4784238358341675
ana-b_28-05-09_30-05-09_02-03-09_02-03-09_02-03-09_02-03-09 1.1.1 5.350187466430001 -3.804618347879681
ana-b_28-05-09_30-05-09_03-03-09_03-03-09_03-03-09_03-03-09 1.1.1 9.023037643064 -3.5252423695104915
ana-b_29-01-01_30-01-01_10-08-01_10-08-01_10-08-01_10-08-01 1.1.1 5.7277337674 -3.3797667580145845
ana-b_29-02-04_30-02-04_05-03-04_05-03-04_05-03-04_05-03-04 1.1.1 10.195451941725 -2.8999947303607905
ana-b_29-02-05_30-02-05_01-04-05_01-04-05_01-04-05_01-04-05 1.1.1 6.320567239959001 -3.6991618958466734
ana-b_29-02-05_30-02-05_03-04-05_03-04-05_03-04-05_03-04-05 1.1.1 8.694242104572 -3.446147533677859
ana-b_29-03-04_30-03-04_03-02-04_03-02-04_03-02-04_03-02-04 1.1.1 6.723118922865999 -3.61288372793532
ana-b_29-03-09_30-03-09_02-05-09_02-05-09_02-05-09_02-05-09 1.1.1 5.428786260859 -3.4906152803340142
ana-b_29-03-09_30-03-09_03-05-09_03-05-09_03-05-09_03-05-09 1.1.1 9.202138515206 -3.219238975513826
ana-b_29-03-09_30-03-09_04-05-09_04-05-09_04-05-09_04-05-09 1.1.1 8.228340130560001 -3.344577123441882
ana-b_29-03-12_28-03-12_10-12-12_10-12-12_10-12-12_10-12-12 1.1.1 6.662097124877001 -3.3305263791617623
ana-b_29-03-12_30-03-12_09-12-12_09-12-12_09-12-12_09-12-12 1.1.1 3.187208182214 -5.413888433458003
ana-b_29-05-09_30-05-09_05-03-09_05-03-09_05-03-09_05-03-09 1.1.1 13.301095429439997 -2.9750729420917
ana-b_30-01-01_28-01-01_09-08-01_09-08-01_09-08-01_09-08-01 1.1.1 3.2932799986270003 -4.708487615461317
ana-b_30-01-01_28-01-01_10-08-01_10-08-01_10-08-01_10-08-01 1.1.1 5.605627376644 -3.6723293059495608
ana-b_30-02-05_28-02-05_03-04-05_03-04-05_03-04-05_03-04-05 1.1.1 8.461518708321 -3.105011991414359
ana-b_30-02-05_29-02-05_02-04-05_02-04-05_02-04-05_02-04-05 1.1.1 5.328055791432 -3.598077943689739
ana-b_30-02-05_29-02-05_04-04-05_04-04-05_04-04-05_04-04-05 1.1.1 7.838579413103999 -3.310420431348293
ana-b_30-02-08_28-02-08_06-10-08_06-10-08_06-10-08_06-10-08 1.1.1 3.602588029053 -4.021569176490082
ana-b_30-02-08_29-02-08_09-10-08_09-10-08_09-10-08_09-10-08 1.1.1 3.30778181127 -4.914393031626728
ana-b_30-03-04_28-03-04_03-02-04_03-02-04_03-02-04_03-02-04 1.1.1 6.404255599274999 -3.382474189253061
ana-b_30-03-09_29-03-09_01-05-09_01-05-09_01-05-09_01-05-09 1.1.1 6.634562393151001 -3.5856976282825257
ana-b_30-03-12_28-03-12_10-12-12_10-12-12_10-12-12_10-12-12 1.1.1 5.04953740551 -3.687911252906437
ana-b_30-03-12_29-03-12_06-12-12_06-12-12_06-12-12_06-12-12 1.1.1 3.2716293022139995 -4.282760382515375
ana-b_30-03-12_29-03-12_07-12-12_07-12-12_07-12-12_07-12-12 1.1.1 3.072198431367001 -4.923329671055613
ana-b_30-03-12_29-03-12_10-12-12_10-12-12_10-12-12_10-12-12 1.1.1 5.180512275553999 -3.614764764042953
ana-b_30-04-05_28-04-05_01-02-05_01-02-05_01-02-05_01-02-05 1.1.1 6.258654655488 -3.417977999480336
ana-b_30-04-05_28-04-05_04-02-05_04-02-05_04-02-05_04-02-05 1.1.1 7.817033680300001 -3.3938197383849635
ana-b_31-02-05_29-02-05_02-04-05_02-04-05_02-04-05_02-04-05 1.1.1 6.978423757801998 -3.3305627264135795
ana-b_31-02-05_29-02-05_04-04-05_04-04-05_04-04-05_04-04-05 1.1.1 9.973803814304 -3.288928876355672
ana-f_11-01-01_13-01-01_06-08-01_06-08-01_06-08-01 1.1.1 14.18809824042 -3.089682417268227
ana-f_11-02-08_13-02-08_06-10-08_06-10-08_06-10-08 1.1.1 13.540855059952 -2.773848039666946
ana-f_11-02-08_15-02-08_06-10-08_06-10-08_06-10-08 1.1.1 19.819920658944 -2.6199374474738137
ana-f_11-03-04_15-02-04_None_None_None 1.1.1 12.574950642575 -3.169640162287828
ana-f_11-03-12_13-03-12_06-12-12_06-12-12_06-12-12 1.1.1 12.54429785411 -2.9244931251415665
ana-f_11-04-05_12-02-05_None_None_None 1.1.1 4.643212917972 -4.026141834914695
ana-f_11-05-09_14-03-09_None_None_None 1.1.1 9.909575834592 -3.18911288006288
ana-f_12-01-01_12-01-01_10-08-01_10-08-01_10-08-01 1.1.1 10.98711683717 -3.0709409004793384
ana-f_12-01-01_13-01-01_06-08-01_06-08-01_06-08-01 1.1.1 13.520276761131 -3.040192904339864
ana-f_12-01-01_14-01-01_06-08-01_06-08-01_06-08-01 1.1.1 13.464470349405 -3.0597417667608178
ana-f_12-01-01_16-01-01_06-08-01_06-08-01_06-08-01 1.1.1 10.979638478115998 -3.309664416637811
ana-f_12-01-01_16-01-01_07-08-01_07-08-01_07-08-01 1.1.1 10.03484324556 -3.0154441951675963
ana-f_12-02-04_14-03-04_None_None_None 1.1.1 6.622154027514 -3.485866705273636
ana-f_12-02-04_32-02-04_01-03-04_01-03-04_01-03-04 1.1.1 14.397633278304 -2.915540078411288
ana-f_12-02-08_13-02-08_06-10-08_06-10-08_06-10-08 1.1.1 13.097686647689995 -3.0829705440986355
ana-f_12-02-08_15-02-08_06-10-08_06-10-08_06-10-08 1.1.1 18.500723387916004 -2.984347938765635
ana-f_12-03-09_16-05-09_None_None_None 1.1.1 7.493848272232999 -3.234355913180744
ana-f_12-03-09_32-05-09_None_None_None 1.1.1 8.450882073635999 -3.548511438935407
ana-f_13-01-01_23-08-01_None_None_None 1.1.1 9.55030744224 -3.1083966324016727
ana-f_13-02-04_12-02-04_02-03-04_02-03-04_02-03-04 1.1.1 12.74362549565 -2.930275644215849
ana-f_13-02-04_13-03-04_None_None_None 1.1.1 13.888529049812 -3.142521225760565
ana-f_13-05-09_12-03-09_None_None_None 1.1.1 9.688275829574 -3.2999801943697813
ana-f_14-01-01_17-08-01_None_None_None 1.1.1 5.9336937398180005 -3.4797414121734684
ana-f_14-01-03_35-11-03_None_None_None 1.1.1 5.215978952712 -3.88538375191963
ana-f_14-02-04_12-02-04_01-03-04_01-03-04_01-03-04 1.1.1 15.437223859998 -2.743442806838996
ana-f_14-02-04_12-02-04_02-03-04_02-03-04_02-03-04 1.1.1 12.6015553216 -3.0049396426009563
ana-f_14-02-04_16-03-04_None_None_None 1.1.1 10.952781226983998 -3.0742617555524063
ana-f_14-02-06_12-02-06_None_None_None 1.1.1 9.014902100928 -3.2404976178917635
ana-f_14-02-08_12-02-08_06-10-08_06-10-08_06-10-08 1.1.1 12.307855109445004 -3.139336221760171
ana-f_14-02-08_19-10-08_None_None_None 1.1.1 9.976389663498 -3.168579467406704
ana-f_14-03-04_14-02-04_None_None_None 1.1.1 13.089523070901 -2.866025205061901
ana-f_14-03-09_14-05-09_None_None_None 1.1.1 16.69098532113 -2.99810265939975
ana-f_14-03-12_12-03-12_06-12-12_06-12-12_06-12-12 1.1.1 11.883612155169 -3.0421548461442565
ana-f_15-05-09_11-03-09_None_None_None 1.1.1 14.917352321010997 -3.117262009396518
ana-f_16-01-01_11-01-01_07-08-01_07-08-01_07-08-01 1.1.1 10.494011823848 -2.914499680645384
ana-f_16-02-05_13-04-05_None_None_None 1.1.1 14.103184639349 -3.0333861505990343
ana-f_16-02-05_14-04-05_None_None_None 1.1.1 13.479747869990002 -3.1206840428885103
ana-f_16-02-05_32-04-05_None_None_None 1.1.1 13.347582198251002 -3.157187562827085
ana-f_16-02-06_32-02-06_None_None_None 1.1.1 13.93445265244 -3.0456013573279974
ana-f_16-02-08_11-02-08_06-10-08_06-10-08_06-10-08 1.1.1 10.713307966533 -2.851707912590236
ana-f_16-03-04_15-02-04_None_None_None 1.1.1 16.629443848359998 -2.9269172542536706
ana-f_16-03-04_32-02-04_None_None_None 1.1.1 11.199972644004 -3.1347054421001674
ana-f_16-03-12_12-03-12_06-12-12_06-12-12_06-12-12 1.1.1 9.802152823248 -3.029635993700025
ana-f_16-04-05_15-02-05_None_None_None 1.1.1 19.84600516493 -2.8549793290809404
ana-f_17-08-01_20-08-01_01-01-01_01-01-01_01-01-01 1.1.1 15.231611259837004 -3.087762214651881
ana-f_17-08-01_20-08-01_02-01-01_02-01-01_02-01-01 1.1.1 10.885681756705004 -2.913482150918923
ana-f_17-10-08_19-10-08_01-02-08_01-02-08_01-02-08 1.1.1 11.961563715816 -3.141214448148081
ana-f_17-10-08_23-10-08_02-02-08_02-02-08_02-02-08 1.1.1 8.786606282631002 -2.9532782038986056
ana-f_17-12-12_20-12-12_02-03-12_02-03-12_02-03-12 1.1.1 11.45278069236 -2.8149449329057536
ana-f_17-12-12_23-12-12_01-03-12_01-03-12_01-03-12 1.1.1 9.939149232978002 -3.19655009297084
ana-f_18-08-01_32-01-01_None_None_None 1.1.1 8.833017313855 -3.4708978695890447
ana-f_18-10-08_17-10-08_01-02-08_01-02-08_01-02-08 1.1.1 8.404806607922 -3.2913174233047258
ana-f_18-10-08_32-02-08_None_None_None 1.1.1 8.713101621829999 -3.2359701088003936
ana-f_18-12-12_17-12-12_01-03-12_01-03-12_01-03-12 1.1.1 9.708261883152 -3.3739270963408607
ana-f_19-08-01_18-08-01_02-01-01_02-01-01_02-01-01 1.1.1 12.505541195168 -2.9359036654727944
ana-f_20-08-01_14-01-01_None_None_None 1.1.1 13.21167320316 -3.183611696582113
ana-f_20-12-12_12-03-12_None_None_None 1.1.1 6.158550381275998 -3.203666256406472
ana-f_23-08-01_17-08-01_01-01-01_01-01-01_01-01-01 1.1.1 11.038851315360002 -3.233563375288917
ana-f_23-10-08_23-10-08_01-02-08_01-02-08_01-02-08 1.1.1 14.7382467069 -2.8035208007558805
ana-f_23-12-12_12-03-12_None_None_None 1.1.1 3.81789846894 -4.1819231184020005
ana-f_23-12-12_17-12-12_02-03-12_02-03-12_02-03-12 1.1.1 7.814896780080001 -2.949399119045481
ana-f_32-01-01_12-01-01_06-08-01_06-08-01_06-08-01 1.1.1 13.707119378255998 -3.0598380115523622
ana-f_32-01-02_33-11-02_None_None_None 1.1.1 5.357380474908 -3.835330223349601
ana-f_32-02-08_17-10-08_None_None_None 1.1.1 6.769785167327999 -3.570188004701718
ana-f_32-02-08_23-10-08_None_None_None 1.1.1 9.258673292479996 -3.2428187199066305
ana-f_32-05-09_14-03-09_None_None_None 1.1.1 16.594803382704 -3.19770426157171
ana-f_32-06-10_34-11-10_None_None_None 1.1.1 5.171602685492001 -3.767360856182196
ana-f_32-07-11_36-11-11_None_None_None 1.1.1 5.102936814924 -3.688900831651948
ana-f_33-11-02_33-11-02_01-01-02_02-01-02_02-01-02 1.1.1 3.710593435258001 -3.6131638037990217
ana-f_33-11-02_33-11-02_02-01-02_01-01-02_01-01-02 1.1.1 3.776648259852001 -4.048538904700171
ana-f_34-11-10_34-11-10_01-06-10_01-06-10_02-06-10 1.1.1 4.06847781072 -4.0925771688843
ana-f_34-11-10_34-11-10_01-06-10_02-06-10_02-06-10 1.1.1 3.542111568505 -4.075072818239296
ana-f_35-11-03_32-01-03_None_None_None 1.1.1 5.487842449012 -3.702517667802092
ana-f_35-11-03_35-11-03_01-01-03_01-01-03_01-01-03 1.1.1 5.776507777317001 -3.707546007484869
ana-f_35-11-03_35-11-03_01-01-03_01-01-03_02-01-03 1.1.1 5.24172403917 -3.4099375790104447
ana-f_35-11-03_35-11-03_02-01-03_02-01-03_02-01-03 1.1.1 4.419595847012 -3.833695142305562
ana-f_35-11-03_35-11-03_04-01-03_03-01-03_04-01-03 1.1.1 9.990907862645 -3.392501577135927
ana-f_36-11-11_36-11-11_01-07-11_01-07-11_02-07-11 1.1.1 4.12178223414 -3.7701477362561233
ana-f_36-11-11_36-11-11_01-07-11_02-07-11_02-07-11 1.1.1 3.573751694738 -3.423854263379718
ana-f_36-11-11_36-11-11_04-07-11_03-07-11_03-07-11 1.1.1 9.160922557618 -3.2217487289392506
ana_30-02-08_07-10-08 1.1.1 2.3532349724170003 -5.188285421716583
asf-a_16-04-05_28-04-05_28-04-05_01-02-05_01-02-05_01-02-05_01-02-05_01-02-05_01-02-05_01-02-05_01-02-05 1.1.1 29.537254427699 -2.7165739785904077
asf-a_16-04-05_28-04-05_28-04-05_02-02-05_02-02-05_02-02-05_02-02-05_02-02-05_02-02-05_02-02-05_02-02-05 1.1.1 25.202722363416004 -2.9483677837473263
asf_31-04-05_29-04-05_01-02-05_01-02-05 1.1.1 12.278867737499995 -3.043444518599458
asn_11-01-01_11-01-01_11-01-01_11-01-01_28-01-01_28-01-01_07-08-01_07-08-01_07-08-01_07-08-01_07-08-01_07-08-01_07-08-01_07-08-01 1.1.1 4.356087374362 -3.905400284539685
asn_11-02-06_11-02-06_11-02-06_11-02-06_30-02-06_30-02-06_02-02-06_02-02-06_02-02-06_02-02-06_02-02-06_02-02-06_02-02-06_02-02-06 1.1.1 5.669117660956002 -3.3518580885494145
asn_11-03-09_11-03-09_11-03-09_11-03-09_29-03-09_29-03-09_04-05-09_04-05-09_04-05-09_04-05-09_04-05-09_04-05-09_04-05-09_04-05-09 1.1.1 11.061362172724005 -3.2731149190685143
asn_11-05-09_11-05-09_11-05-09_11-05-09_29-03-09_29-03-09_None_None_None_None_None_None_None_None 1.1.1 3.791433598125 -4.06549149703312
asn_12-02-04_12-02-04_12-02-04_12-02-04_29-03-04_29-03-04_None_None_None_None_None_None_None_None 1.1.1 2.696993564413999 -5.196751510351249
asn_12-02-06_12-02-06_12-02-06_12-02-06_29-02-06_29-02-06_None_None_None_None_None_None_None_None 1.1.1 3.5447708727920006 -4.29626239864581
asn_12-03-04_12-03-04_12-03-04_12-03-04_29-03-04_29-03-04_03-02-04_03-02-04_03-02-04_03-02-04_03-02-04_03-02-04_03-02-04_03-02-04 1.1.1 8.467930492475999 -3.175825064846419
asn_12-03-04_12-03-04_12-03-04_12-03-04_30-03-04_30-03-04_02-02-04_02-02-04_02-02-04_02-02-04_02-02-04_02-02-04_02-02-04_02-02-04 1.1.1 3.0602666898220003 -4.1214290059968
asn_12-03-09_12-03-09_12-03-09_12-03-09_29-03-09_29-03-09_01-05-09_01-05-09_01-05-09_01-05-09_01-05-09_01-05-09_01-05-09_01-05-09 1.1.1 8.583528948183002 -3.453524103891552
asn_12-03-09_12-03-09_12-03-09_12-03-09_29-03-09_29-03-09_02-05-09_02-05-09_02-05-09_02-05-09_02-05-09_02-05-09_02-05-09_02-05-09 1.1.1 7.036546805127999 -3.0288128478760385
asn_12-03-09_12-03-09_12-03-09_12-03-09_29-03-09_29-03-09_04-05-09_04-05-09_04-05-09_04-05-09_04-05-09_04-05-09_04-05-09_04-05-09 1.1.1 10.573312878493002 -3.0684090876500245
asn_13-01-01_13-01-01_13-01-01_13-01-01_29-01-01_29-01-01_09-08-01_09-08-01_09-08-01_09-08-01_09-08-01_09-08-01_09-08-01_09-08-01 1.1.1 6.533688433604002 -3.667453210491072
asn_13-02-08_13-02-08_13-02-08_13-02-08_29-02-08_29-02-08_08-10-08_08-10-08_08-10-08_08-10-08_08-10-08_08-10-08_08-10-08_08-10-08 1.1.1 7.742132468752001 -3.2858507556079863
asn_13-03-12_13-03-12_13-03-12_13-03-12_30-03-12_30-03-12_09-12-12_09-12-12_09-12-12_09-12-12_09-12-12_09-12-12_09-12-12_09-12-12 1.1.1 4.572805399082001 -3.918711271732992
asn_14-02-08_14-02-08_14-02-08_14-02-08_29-02-08_29-02-08_07-10-08_07-10-08_07-10-08_07-10-08_07-10-08_07-10-08_07-10-08_07-10-08 1.1.1 6.695992204595999 -3.691872996960392
asn_14-02-08_14-02-08_14-02-08_14-02-08_29-02-08_29-02-08_09-10-08_09-10-08_09-10-08_09-10-08_09-10-08_09-10-08_09-10-08_09-10-08 1.1.1 6.278796256668 -3.6024655149267697
asn_14-02-08_14-02-08_14-02-08_14-02-08_30-02-08_30-02-08_10-10-08_10-10-08_10-10-08_10-10-08_10-10-08_10-10-08_10-10-08_10-10-08 1.1.1 8.25718064376 -3.408572659364689
asn_14-03-09_14-03-09_14-03-09_14-03-09_29-03-09_29-03-09_03-05-09_03-05-09_03-05-09_03-05-09_03-05-09_03-05-09_03-05-09_03-05-09 1.1.1 16.100330558312 -3.0230070749664195
asn_14-03-09_14-03-09_14-03-09_14-03-09_29-03-09_29-03-09_04-05-09_04-05-09_04-05-09_04-05-09_04-05-09_04-05-09_04-05-09_04-05-09 1.1.1 14.573281796066 -3.0529814808439752
asn_14-03-12_14-03-12_14-03-12_14-03-12_29-03-12_29-03-12_10-12-12_10-12-12_10-12-12_10-12-12_10-12-12_10-12-12_10-12-12_10-12-12 1.1.1 9.86438744775 -3.365145620858096
asn_14-03-12_14-03-12_14-03-12_14-03-12_30-03-12_30-03-12_09-12-12_09-12-12_09-12-12_09-12-12_09-12-12_09-12-12_09-12-12_09-12-12 1.1.1 4.4661974319 -4.269286073174077
asn_14-05-09_14-05-09_14-05-09_14-05-09_29-05-09_29-05-09_01-03-09_01-03-09_01-03-09_01-03-09_01-03-09_01-03-09_01-03-09_01-03-09 1.1.1 12.166186539466 -3.0262319722359634
asn_14-05-09_14-05-09_14-05-09_14-05-09_29-05-09_29-05-09_02-03-09_02-03-09_02-03-09_02-03-09_02-03-09_02-03-09_02-03-09_02-03-09 1.1.1 10.46942150597 -3.162772543918652
asn_15-01-01_15-01-01_15-01-01_15-01-01_30-01-01_30-01-01_10-08-01_10-08-01_10-08-01_10-08-01_10-08-01_10-08-01_10-08-01_10-08-01 1.1.1 10.741757469226004 -2.8799663580465005
asn_15-02-04_15-02-04_15-02-04_15-02-04_30-02-04_30-02-04_02-03-04_02-03-04_02-03-04_02-03-04_02-03-04_02-03-04_02-03-04_02-03-04 1.1.1 7.089464737644001 -3.3587758095894613
asn_15-02-04_15-02-04_15-02-04_15-02-04_30-02-04_30-02-04_04-03-04_04-03-04_04-03-04_04-03-04_04-03-04_04-03-04_04-03-04_04-03-04 1.1.1 10.802979104635996 -3.1122507076470742
asn_15-02-06_15-02-06_15-02-06_15-02-06_29-02-06_29-02-06_04-02-06_04-02-06_04-02-06_04-02-06_04-02-06_04-02-06_04-02-06_04-02-06 1.1.1 18.359219705325003 -2.831507569063089
asn_15-02-06_15-02-06_15-02-06_15-02-06_29-02-06_29-02-06_05-02-06_05-02-06_05-02-06_05-02-06_05-02-06_05-02-06_05-02-06_05-02-06 1.1.1 27.25243881736801 -2.8569401935275
asn_15-02-08_15-02-08_15-02-08_15-02-08_29-02-08_29-02-08_07-10-08_07-10-08_07-10-08_07-10-08_07-10-08_07-10-08_07-10-08_07-10-08 1.1.1 8.87090375528 -3.159045177760333
asn_15-02-08_15-02-08_15-02-08_15-02-08_29-02-08_29-02-08_09-10-08_09-10-08_09-10-08_09-10-08_09-10-08_09-10-08_09-10-08_09-10-08 1.1.1 8.176351317719998 -3.446877393432637
asn_15-02-08_15-02-08_15-02-08_15-02-08_30-02-08_30-02-08_10-10-08_10-10-08_10-10-08_10-10-08_10-10-08_10-10-08_10-10-08_10-10-08 1.1.1 10.589057539871998 -3.1100791609225507
asn_15-03-04_15-03-04_15-03-04_15-03-04_30-03-04_30-03-04_03-02-04_03-02-04_03-02-04_03-02-04_03-02-04_03-02-04_03-02-04_03-02-04 1.1.1 11.924120711103 -3.3351790890147166
asn_15-03-09_15-03-09_15-03-09_15-03-09_30-03-09_30-03-09_04-05-09_04-05-09_04-05-09_04-05-09_04-05-09_04-05-09_04-05-09_04-05-09 1.1.1 14.563227302916998 -3.0445808730186608
asn_15-03-12_15-03-12_15-03-12_15-03-12_29-03-12_29-03-12_07-12-12_07-12-12_07-12-12_07-12-12_07-12-12_07-12-12_07-12-12_07-12-12 1.1.1 8.060438828652 -3.456168055574125
asn_15-03-12_15-03-12_15-03-12_15-03-12_29-03-12_29-03-12_09-12-12_09-12-12_09-12-12_09-12-12_09-12-12_09-12-12_09-12-12_09-12-12 1.1.1 7.642639185258 -3.4686884370222604
asn_15-03-12_15-03-12_15-03-12_15-03-12_29-03-12_29-03-12_10-12-12_10-12-12_10-12-12_10-12-12_10-12-12_10-12-12_10-12-12_10-12-12 1.1.1 12.221732024831 -3.094791906378022
asn_15-03-12_15-03-12_15-03-12_15-03-12_30-03-12_30-03-12_08-12-12_08-12-12_08-12-12_08-12-12_08-12-12_08-12-12_08-12-12_08-12-12 1.1.1 7.1588762845 -3.250708891535928
asn_15-04-05_15-04-05_15-04-05_15-04-05_29-04-05_29-04-05_03-02-05_03-02-05_03-02-05_03-02-05_03-02-05_03-02-05_03-02-05_03-02-05 1.1.1 18.988463777496 -2.82263570113844
asn_15-05-09_15-05-09_15-05-09_15-05-09_29-05-09_29-05-09_01-03-09_01-03-09_01-03-09_01-03-09_01-03-09_01-03-09_01-03-09_01-03-09 1.1.1 15.06368557344 -3.014062743671936
asn_16-01-01_16-01-01_16-01-01_16-01-01_30-01-01_30-01-01_06-08-01_06-08-01_06-08-01_06-08-01_06-08-01_06-08-01_06-08-01_06-08-01 1.1.1 4.603645723124 -4.058067703841243
asn_16-02-04_16-02-04_16-02-04_16-02-04_29-02-04_29-02-04_05-03-04_05-03-04_05-03-04_05-03-04_05-03-04_05-03-04_05-03-04_05-03-04 1.1.1 16.051323513285002 -2.9556503258765976
asn_16-02-05_16-02-05_16-02-05_16-02-05_28-04-05_28-04-05_None_None_None_None_None_None_None_None 1.1.1 4.550622987024 -3.7367288048766047
asn_16-02-06_16-02-06_16-02-06_16-02-06_28-02-06_28-02-06_04-02-06_04-02-06_04-02-06_04-02-06_04-02-06_04-02-06_04-02-06_04-02-06 1.1.1 13.429547276502 -3.0946535568543063
asn_16-02-06_16-02-06_16-02-06_16-02-06_29-02-06_29-02-06_None_None_None_None_None_None_None_None 1.1.1 5.129637584171999 -3.580952673232421
asn_16-02-08_16-02-08_16-02-08_16-02-08_29-02-08_29-02-08_07-10-08_07-10-08_07-10-08_07-10-08_07-10-08_07-10-08_07-10-08_07-10-08 1.1.1 5.746813918384 -3.831511551924677
asn_16-02-08_16-02-08_16-02-08_16-02-08_30-02-08_30-02-08_08-10-08_08-10-08_08-10-08_08-10-08_08-10-08_08-10-08_08-10-08_08-10-08 1.1.1 4.966004944124999 -3.690298833185469
asn_16-03-04_16-03-04_16-03-04_16-03-04_28-03-04_28-03-04_02-02-04_02-02-04_02-02-04_02-02-04_02-02-04_02-02-04_02-02-04_02-02-04 1.1.1 5.979399162387001 -3.4069182364777166
asn_16-03-09_16-03-09_16-03-09_16-03-09_29-03-09_29-03-09_04-05-09_04-05-09_04-05-09_04-05-09_04-05-09_04-05-09_04-05-09_04-05-09 1.1.1 13.290848293017 -3.206424858479281
asn_16-03-12_16-03-12_16-03-12_16-03-12_29-03-12_29-03-12_08-12-12_08-12-12_08-12-12_08-12-12_08-12-12_08-12-12_08-12-12_08-12-12 1.1.1 6.288316092132001 -3.375007468442601
asn_16-03-12_16-03-12_16-03-12_16-03-12_29-03-12_29-03-12_10-12-12_10-12-12_10-12-12_10-12-12_10-12-12_10-12-12_10-12-12_10-12-12 1.1.1 8.694400000594001 -3.2738149077011163
asn_20-12-12_20-12-12_20-12-12_20-12-12_29-03-12_29-03-12_None_None_None_None_None_None_None_None 1.1.1 4.311721000746 -3.8910471596183034
asn_32-01-01_32-01-01_32-01-01_32-01-01_29-01-01_29-01-01_09-08-01_09-08-01_09-08-01_09-08-01_09-08-01_09-08-01_09-08-01_09-08-01 1.1.1 6.242611741195999 -3.507663686104824
asn_32-01-01_32-01-01_32-01-01_32-01-01_29-01-01_29-01-01_10-08-01_10-08-01_10-08-01_10-08-01_10-08-01_10-08-01_10-08-01_10-08-01 1.1.1 10.393413879394002 -3.107113354248608
asn_32-02-04_32-02-04_32-02-04_32-02-04_29-02-04_29-02-04_05-03-04_05-03-04_05-03-04_05-03-04_05-03-04_05-03-04_05-03-04_05-03-04 1.1.1 16.876079169696 -2.955020135353408
asn_32-02-04_32-02-04_32-02-04_32-02-04_30-03-04_30-03-04_None_None_None_None_None_None_None_None 1.1.1 3.1678039671259994 -4.535987892427197
asn_32-02-08_32-02-08_32-02-08_32-02-08_30-02-08_30-02-08_09-10-08_09-10-08_09-10-08_09-10-08_09-10-08_09-10-08_09-10-08_09-10-08 1.1.1 4.513908034055 -4.06392557549242
asn_32-03-09_32-03-09_32-03-09_32-03-09_29-03-09_29-03-09_02-05-09_02-05-09_02-05-09_02-05-09_02-05-09_02-05-09_02-05-09_02-05-09 1.1.1 9.851959620839 -2.944705314591574
asn_32-03-09_32-03-09_32-03-09_32-03-09_30-03-09_30-03-09_03-05-09_03-05-09_03-05-09_03-05-09_03-05-09_03-05-09_03-05-09_03-05-09 1.1.1 12.445283667795 -2.8870156658635286
asn_32-03-12_32-03-12_32-03-12_32-03-12_29-03-12_29-03-12_10-12-12_10-12-12_10-12-12_10-12-12_10-12-12_10-12-12_10-12-12_10-12-12 1.1.1 9.332430200416 -3.198920879329562
asn_32-03-12_32-03-12_32-03-12_32-03-12_30-03-12_30-03-12_09-12-12_09-12-12_09-12-12_09-12-12_09-12-12_09-12-12_09-12-12_09-12-12 1.1.1 4.319937221600001 -4.420046783249037
asn_32-05-09_32-05-09_32-05-09_32-05-09_29-03-09_29-03-09_None_None_None_None_None_None_None_None 1.1.1 5.66059448556 -3.607233782272525
asn_33-11-02_33-11-02_33-11-02_33-11-02_29-01-02_29-01-02_None_None_None_None_None_None_None_None 1.1.2 2.1747241494900003 -6.45520949764652
ast_28-01-01_29-01-01_06-08-01_07-08-01 1.1.1 5.454293484044 -3.6621362548109087
ast_28-01-01_29-01-01_07-08-01_06-08-01 1.1.1 5.342494581874999 -3.7593336611950874
ast_28-01-01_29-01-01_09-08-01_08-08-01 1.1.1 5.267669189271 -3.861115842866761
ast_28-01-01_30-01-01_06-08-01_08-08-01 1.1.1 5.00704275329 -3.809753035567317
ast_28-01-01_30-01-01_06-08-01_09-08-01 1.1.1 4.503280865395 -3.8562981189752334
ast_28-01-01_30-01-01_07-08-01_09-08-01 1.1.1 4.413105041295 -4.081459535182567
ast_28-02-04_28-02-04_01-03-04_02-03-04 1.1.1 5.9987484342 -3.5259805881251878
ast_28-02-04_29-02-04_04-03-04_04-03-04 1.1.1 8.301030595865 -3.3962479594494988
ast_28-02-04_29-02-04_05-03-04_05-03-04 1.1.1 13.650476094718002 -2.924023159108732
ast_28-02-06_28-02-06_01-02-06_02-02-06 1.1.1 9.021245845508 -3.1423958095856395
ast_28-02-06_29-02-06_03-02-06_04-02-06 1.1.1 12.495300904785 -2.824025611815934
ast_28-02-06_29-02-06_04-02-06_03-02-06 1.1.1 12.200569662299 -3.0978031546473863
ast_28-02-08_29-02-08_06-10-08_07-10-08 1.1.1 5.290686691104998 -3.626763944010387
ast_28-02-08_29-02-08_07-10-08_06-10-08 1.1.1 5.2580232571110015 -3.681835695487208
ast_28-02-08_29-02-08_08-10-08_09-10-08 1.1.1 5.3769210204840014 -3.895163464616291
ast_28-02-08_30-02-08_06-10-08_08-10-08 1.1.1 4.9403357618640005 -3.814803274428809
ast_28-02-08_30-02-08_06-10-08_09-10-08 1.1.1 4.425285760863 -4.01166801879023
ast_28-02-08_30-02-08_07-10-08_09-10-08 1.1.1 4.293681407136 -4.257595937800393
ast_28-03-09_28-03-09_02-05-09_01-05-09 1.1.1 8.250833382984002 -3.5808919257579115
ast_28-03-09_29-03-09_03-05-09_03-05-09 1.1.1 12.714367200439996 -3.0891864830026794
ast_28-03-12_29-03-12_06-12-12_07-12-12 1.1.1 4.63054442472 -3.738253378104274
ast_28-03-12_29-03-12_08-12-12_09-12-12 1.1.1 5.014619367 -3.785273000714591
ast_28-03-12_29-03-12_09-12-12_08-12-12 1.1.1 4.863549369525 -3.818436280268168
ast_28-03-12_29-03-12_10-12-12_10-12-12 1.1.1 7.553696334650998 -3.3474677923379144
ast_28-03-12_30-03-12_06-12-12_09-12-12 1.1.1 4.135610943047001 -3.784682059632337
ast_28-03-12_30-03-12_07-12-12_08-12-12 1.1.1 4.302754306379 -3.802863209180397
ast_28-03-12_30-03-12_07-12-12_09-12-12 1.1.1 4.019584749648001 -4.421676965070065
ast_28-05-09_29-05-09_02-03-09_02-03-09 1.1.1 7.976696995419998 -3.326602817257298
ast_29-01-01_28-01-01_06-08-01_06-08-01 1.1.1 5.874474716122002 -3.419829860337031
ast_29-01-01_28-01-01_06-08-01_07-08-01 1.1.1 5.545776638051999 -3.73919306436662
ast_29-01-01_28-01-01_08-08-01_09-08-01 1.1.1 5.627589209326 -3.935339422204689
ast_29-01-01_29-01-01_07-08-01_06-08-01 1.1.1 5.544594963263998 -4.007397507049987
ast_29-01-01_29-01-01_09-08-01_08-08-01 1.1.1 5.50467950739 -3.760988459348529
ast_29-02-04_28-02-04_05-03-04_05-03-04 1.1.1 13.963373926676995 -3.1131919345504646
ast_29-02-05_29-02-05_01-04-05_01-04-05 1.1.1 9.265075114342 -3.164411823106798
ast_29-02-05_29-02-05_03-04-05_04-04-05 1.1.1 12.085189079964 -3.253233926790595
ast_29-02-06_28-02-06_02-02-06_01-02-06 1.1.1 9.02260298444 -3.061185158212862
ast_29-02-06_28-02-06_03-02-06_04-02-06 1.1.1 12.812189551745 -3.171644563008848
ast_29-02-06_28-02-06_04-02-06_04-02-06 1.1.1 12.114048509696 -3.218227381887144
ast_29-02-06_28-02-06_05-02-06_05-02-06 1.1.1 18.514857193152 -2.794568741716255
ast_29-02-06_29-02-06_03-02-06_03-02-06 1.1.1 13.61370338559 -2.8196420479693645
ast_29-02-06_29-02-06_04-02-06_03-02-06 1.1.1 12.569626396457998 -2.983363798089236
ast_29-02-08_28-02-08_06-10-08_07-10-08 1.1.1 5.570242281142 -3.7355121783665295
ast_29-02-08_28-02-08_09-10-08_08-10-08 1.1.1 5.33345298234 -3.871455398463056
ast_29-03-09_28-03-09_02-05-09_02-05-09 1.1.1 8.054962648250001 -3.261577283219466
ast_29-03-09_28-03-09_04-05-09_04-05-09 1.1.1 11.666081330384005 -3.090500293830529
ast_29-03-09_29-03-09_01-05-09_02-05-09 1.1.1 9.000538326626 -3.361461478932429
ast_29-03-12_28-03-12_07-12-12_06-12-12 1.1.1 4.820927472207 -3.7833379410638783
ast_29-03-12_28-03-12_08-12-12_08-12-12 1.1.1 5.684283101573999 -3.691519167640768
ast_29-03-12_29-03-12_08-12-12_09-12-12 1.1.1 5.251028542346998 -3.7281969017501058
ast_29-05-09_29-05-09_04-03-09_03-03-09 1.1.1 12.31106642056 -3.187060640721953
ast_30-01-01_28-01-01_08-08-01_07-08-01 1.1.1 3.527700329835 -4.045442649863108
ast_30-01-01_28-01-01_09-08-01_06-08-01 1.1.1 3.140292767326 -5.047008207065839
ast_30-01-01_28-01-01_10-08-01_08-08-01 1.1.1 4.7415429559260005 -3.925793203243349
ast_30-01-01_28-01-01_10-08-01_09-08-01 1.1.1 4.295365471405001 -4.229598100281041
ast_30-02-08_28-02-08_08-10-08_06-10-08 1.1.1 3.540093820767 -4.535983422917017
ast_30-02-08_28-02-08_08-10-08_07-10-08 1.1.1 3.4408081115340003 -4.678818087063788
ast_30-02-08_28-02-08_09-10-08_06-10-08 1.1.1 3.05375371592 -5.041761204009204
ast_30-02-08_28-02-08_10-10-08_09-10-08 1.1.1 4.254301260559999 -4.34666213868725
ast_30-03-12_28-03-12_08-12-12_07-12-12 1.1.1 3.209241237584 -5.047555764961494
ast_30-03-12_28-03-12_09-12-12_07-12-12 1.1.1 2.876719649265 -5.198139899635846
ast_30-03-12_30-03-12_09-12-12_08-12-12 1.1.1 2.8185205786640006 -5.197054569379907
ast_30-04-05_30-04-05_02-02-05_01-02-05 1.1.1 4.725026401248 -3.539394091801405
ast_30-04-05_30-04-05_03-02-05_04-02-05 1.1.1 7.626909795840001 -3.2553197587338256
asv_31-02-05_29-02-05_05-04-05_05-04-05_05-04-05 1.1.1 17.5127201225 -2.979671910416067
asv_31-02-06_28-02-06_01-02-06_01-02-06_02-02-06 1.1.1 9.342491129238 -3.138210877411195
asv_31-02-06_29-02-06_03-02-06_04-02-06_03-02-06 1.1.1 12.727392678831997 -3.127192551244316
asv_31-02-06_29-02-06_03-02-06_04-02-06_04-02-06 1.1.1 12.591570509802002 -2.886889691898777
asv_31-02-06_29-02-06_04-02-06_04-02-06_03-02-06 1.1.1 12.19982667636 -3.000905528788079
asv_31-03-04_29-03-04_03-02-04_03-02-04_03-02-04 1.1.1 9.48744011064 -3.0057353172124426
asv_31-03-12_28-03-12_09-12-12_09-12-12_09-12-12 1.1.2 3.237093005984 -4.551955102330935
atn_28-02-08_07-10-08_06-10-08_06-10-08 1.1.1 4.89543407182 -4.06107510901732
atn_29-01-01_07-08-01_06-08-01_07-08-01 1.1.1 5.191307871684 -3.705495482447978
atn_29-03-12_06-12-12_07-12-12_06-12-12 1.1.1 4.757902433004 -3.759720135562712
atn_29-03-12_08-12-12_09-12-12_09-12-12 1.1.1 4.519216211183 -3.893491081968547
ato_28-03-09_01-05-09_01-05-09_01-05-09_01-05-09 1.1.1 8.128203434475001 -3.2265727548796965
aww_30-02-06_30-02-06_01-02-06_01-02-06_01-02-06_01-02-06_01-02-06 1.1.1 5.925425989707 -3.578364349459731
baa_30-05-09_30-05-09_04-03-09_03-03-09 1.1.1 5.703286318742999 -3.560359284813299
baa_31-03-12_28-03-12_06-12-12_06-12-12 1.1.1 3.715498181926 -3.9406396363177496
baa_31-03-12_29-03-12_07-12-12_07-12-12 1.1.1 3.622572076405001 -4.193201375757302
baa_31-03-12_29-03-12_09-12-12_08-12-12 1.1.1 3.827952052584 -4.326926991413884
bab_30-01-01_30-01-01_06-08-01_06-08-01_06-08-01_06-08-01 1.1.1 3.328892546166 -4.485019302822339
bab_30-02-05_30-02-05_05-04-05_05-04-05_05-04-05_05-04-05 1.1.1 10.794248865216002 -3.0785741735339816
bab_30-02-08_30-02-08_06-10-08_06-10-08_06-10-08_06-10-08 1.1.1 3.171561591040001 -4.611132556025213
bac_29-02-06_29-02-06_03-02-06_04-02-06_04-02-06_04-02-06 1.1.1 10.452903470262 -3.1256484835952154
bae_30-02-06_30-02-06_04-02-06_04-02-06_04-02-06_04-02-06_04-02-06 1.1.1 2.7836219516680005 -5.3447928673141005
bag_30-02-06_30-02-06_01-02-06_01-02-06_01-02-06_01-02-06_01-02-06_01-02-06 1.1.1 16.6906295549 -2.9308168263257603
bah_30-01-01_30-01-01_06-08-01_06-08-01_06-08-01_06-08-01_06-08-01_06-08-01_06-08-01 1.1.1 7.038951575480999 -3.3485576212760577
bah_30-02-08_30-02-08_06-10-08_06-10-08_06-10-08_06-10-08_06-10-08_06-10-08_06-10-08 1.1.1 6.681882486620001 -3.4847185834461456
bai_28-04-05_28-04-05_02-02-05_02-02-05_02-02-05 1.1.1 12.294952864715004 -2.980556174564996
bai_28-04-05_29-04-05_01-02-05_01-02-05_01-02-05 1.1.1 15.56014694712 -2.886463944155447
bai_28-04-05_29-04-05_04-02-05_04-02-05_04-02-05 1.1.1 19.672599724679 -2.992961576877744
bai_28-05-09_28-05-09_01-03-09_01-03-09_01-03-09 1.1.1 14.675071323969 -3.033854907510624
bai_28-05-09_29-05-09_02-03-09_02-03-09_02-03-09 1.1.1 12.747821758966 -3.0692394068478537
bai_30-02-04_30-02-04_05-03-04_05-03-04_05-03-04 1.1.1 13.574279780574 -3.180967802774017
bai_30-02-06_30-02-06_03-02-06_04-02-06_03-02-06 1.1.1 14.745900941888 -2.9722104817050967
bai_30-02-06_30-02-06_03-02-06_04-02-06_04-02-06 1.1.1 13.465829571600002 -3.1598411770974306
baj_29-02-08_29-02-08_06-10-08_06-10-08_06-10-08_06-10-08_06-10-08 1.1.1 11.539804879980002 -3.21703669462523
baj_30-01-01_30-01-01_06-08-01_06-08-01_06-08-01_06-08-01_06-08-01 1.1.1 5.395456969812001 -3.711018868761464
baj_30-02-08_30-02-08_06-10-08_06-10-08_06-10-08_06-10-08_06-10-08 1.1.1 5.225488422658 -4.002677226663075
bal_29-02-05_31-02-05_04-04-05_04-04-05_04-04-05_04-04-05 1.1.1 9.485531265945 -3.159873331626052
bal_29-02-06_29-02-06_03-02-06_03-02-06_04-02-06_03-02-06 1.1.1 6.710528093882999 -3.4511723892259547
bal_29-03-09_31-03-09_01-05-09_01-05-09_01-05-09_01-05-09 1.1.1 8.151228047858 -3.2347792735540266
bal_29-03-09_31-03-09_02-05-09_02-05-09_02-05-09_02-05-09 1.1.1 6.634064877002 -3.503827159480793
bam_28-02-04_28-02-04_05-03-04_05-03-04_05-03-04_05-03-04_05-03-04_05-03-04_05-03-04 1.1.1 20.75776137685 -3.127755971163104
bam_28-02-06_28-02-06_03-02-06_03-02-06_03-02-06_03-02-06_03-02-06_03-02-06_03-02-06 1.1.1 19.408542570586 -2.8098797753553626
bam_28-03-12_28-03-12_06-12-12_06-12-12_06-12-12_06-12-12_06-12-12_06-12-12_06-12-12 1.1.1 6.870564007692 -3.430128710534317
bam_28-04-05_28-04-05_04-02-05_04-02-05_04-02-05_04-02-05_04-02-05_04-02-05_04-02-05 1.1.1 16.473151877182 -2.9563522548755854
bam_28-05-09_28-05-09_03-03-09_03-03-09_03-03-09_03-03-09_03-03-09_03-03-09_03-03-09 1.1.1 18.647025187824003 -2.9079832868736037
bam_29-01-01_29-01-01_09-08-01_09-08-01_09-08-01_09-08-01_09-08-01_09-08-01_09-08-01 1.1.1 7.496559058102 -3.505775807152616
bam_29-02-04_29-02-04_05-03-04_05-03-04_05-03-04_05-03-04_05-03-04_05-03-04_05-03-04 1.1.1 21.741581556814005 -2.8362779556951616
bam_29-02-05_29-02-05_01-04-05_01-04-05_01-04-05_01-04-05_01-04-05_01-04-05_01-04-05 1.1.1 13.760932209240002 -2.9782840407576363
bam_29-02-08_29-02-08_10-10-08_10-10-08_10-10-08_10-10-08_10-10-08_10-10-08_10-10-08 1.1.1 12.714022697824 -2.9285407227691294
bam_29-03-09_29-03-09_01-05-09_01-05-09_01-05-09_01-05-09_01-05-09_01-05-09_01-05-09 1.1.1 14.189710605285995 -3.191678272749256
bam_29-04-05_29-04-05_02-02-05_02-02-05_02-02-05_02-02-05_02-02-05_02-02-05_02-02-05 1.1.1 11.84777471227 -2.930242927692734
bam_29-05-09_29-05-09_04-03-09_04-03-09_04-03-09_04-03-09_04-03-09_04-03-09_04-03-09 1.1.1 17.703609409866 -2.80901713395032
bam_30-01-01_30-01-01_10-08-01_10-08-01_10-08-01_10-08-01_10-08-01_10-08-01_10-08-01 1.1.1 7.103648948394001 -3.307738182902813
bam_30-02-08_30-02-08_10-10-08_10-10-08_10-10-08_10-10-08_10-10-08_10-10-08_10-10-08 1.1.1 7.015698118944 -3.7187858748806497
bam_30-04-05_30-04-05_02-02-05_02-02-05_02-02-05_02-02-05_02-02-05_02-02-05_02-02-05 1.1.1 6.660908394435 -3.3603728924146226
bam_30-04-05_30-04-05_03-02-05_03-02-05_03-02-05_03-02-05_03-02-05_03-02-05_03-02-05 1.1.1 12.1337279777 -2.931534017797901
ban_28-02-06_28-02-06_05-02-06_05-02-06_05-02-06_05-02-06_05-02-06_05-02-06 1.1.1 22.449758417188 -2.9138329808860126
ban_29-01-01_29-01-01_07-08-01_07-08-01_07-08-01_07-08-01_07-08-01_07-08-01 1.1.1 7.167007805698001 -3.422063388524194
ban_29-01-01_29-01-01_10-08-01_10-08-01_10-08-01_10-08-01_10-08-01_10-08-01 1.1.1 11.649114113280003 -3.209522722452434
ban_29-02-08_29-02-08_07-10-08_07-10-08_07-10-08_07-10-08_07-10-08_07-10-08 1.1.1 7.021021997159997 -3.56140572826773
ban_29-03-12_29-03-12_06-12-12_06-12-12_06-12-12_06-12-12_06-12-12_06-12-12 1.1.1 6.67321535349 -3.317925698133733
ban_29-03-12_29-03-12_09-12-12_09-12-12_09-12-12_09-12-12_09-12-12_09-12-12 1.1.1 6.226742405576 -4.110837719142379
ban_29-03-12_29-03-12_10-12-12_10-12-12_10-12-12_10-12-12_10-12-12_10-12-12 1.1.1 10.400604158154 -3.118419276439425
ban_30-01-01_30-01-01_06-08-01_06-08-01_06-08-01_06-08-01_06-08-01_06-08-01 1.1.1 3.757113793148 -3.926913623262293
ban_30-02-06_30-02-06_04-02-06_04-02-06_04-02-06_04-02-06_04-02-06_04-02-06 1.1.1 10.079084494913 -3.0453723588754924
ban_30-02-08_30-02-08_07-10-08_07-10-08_07-10-08_07-10-08_07-10-08_07-10-08 1.1.1 3.249892232928 -4.828421808385854
bao_28-02-06_29-02-06_03-02-06_03-02-06_04-02-06 1.1.1 11.745936949291996 -3.2685242569004216
bao_28-02-06_29-02-06_03-02-06_04-02-06_04-02-06 1.1.1 10.840174968104998 -3.195005073570605
bao_29-01-01_29-01-01_06-08-01_06-08-01_07-08-01 1.1.1 5.247490461202001 -3.755872362895024
bao_29-01-01_29-01-01_06-08-01_07-08-01_07-08-01 1.1.1 5.0500851973300005 -3.82299684816635
bao_29-01-01_29-01-01_07-08-01_06-08-01_06-08-01 1.1.1 5.337049896221999 -3.7982662784815617
bao_29-01-01_29-01-01_07-08-01_07-08-01_06-08-01 1.1.1 5.126289877131 -3.695098667982656
bao_29-01-01_29-01-01_08-08-01_08-08-01_09-08-01 1.1.1 5.344847561778 -3.9701240568308696
bao_29-01-01_29-01-01_08-08-01_09-08-01_09-08-01 1.1.1 4.8905347175300005 -3.832913954603968
bao_29-01-01_29-01-01_09-08-01_08-08-01_08-08-01 1.1.1 5.519252223888 -3.936859596633896
bao_29-01-01_29-01-01_09-08-01_09-08-01_08-08-01 1.1.1 5.091540296458 -4.08859340466449
bao_29-02-06_28-02-06_04-02-06_03-02-06_03-02-06 1.1.1 11.058362809289 -3.1602457688408787
bao_29-02-06_28-02-06_04-02-06_04-02-06_03-02-06 1.1.1 10.24189923396 -3.370237107646507
bao_29-02-06_29-02-06_04-02-06_03-02-06_03-02-06 1.1.1 12.235348147080002 -3.1455160839679683
bao_29-02-08_29-02-08_06-10-08_06-10-08_06-10-08 1.1.1 5.165742326969999 -3.595554239307797
bao_29-02-08_29-02-08_06-10-08_06-10-08_07-10-08 1.1.1 5.020069791957999 -3.710772464384939
bao_29-02-08_29-02-08_06-10-08_07-10-08_07-10-08 1.1.1 4.945706016160001 -3.9617661701767934
bao_29-02-08_29-02-08_07-10-08_06-10-08_06-10-08 1.1.1 5.168824854106 -3.4392641662416508
bao_29-02-08_29-02-08_07-10-08_07-10-08_06-10-08 1.1.1 4.849040728344001 -3.9346443309467336
bao_29-02-08_29-02-08_08-10-08_08-10-08_09-10-08 1.1.1 5.108359209684 -3.905543645443836
bao_29-02-08_29-02-08_08-10-08_09-10-08_09-10-08 1.1.1 4.693541359972 -4.305910906905672
bao_29-02-08_29-02-08_09-10-08_08-10-08_08-10-08 1.1.1 5.453457324783998 -3.9030249190529913
bao_29-02-08_29-02-08_09-10-08_09-10-08_08-10-08 1.1.1 4.883917237056001 -4.095346201464404
bao_29-02-08_29-02-08_09-10-08_09-10-08_09-10-08 1.1.1 4.7708243117 -3.798051602847378
bao_29-03-12_29-03-12_06-12-12_06-12-12_07-12-12 1.1.1 4.615667570623 -3.4975013126601318
bao_29-03-12_29-03-12_06-12-12_07-12-12_07-12-12 1.1.1 4.446319297351 -3.9679133844287255
bao_29-03-12_29-03-12_07-12-12_06-12-12_06-12-12 1.1.1 4.444457598178001 -4.056173548495094
bao_29-03-12_29-03-12_07-12-12_07-12-12_06-12-12 1.1.1 4.53743463822 -3.836459999244692
bao_29-03-12_29-03-12_08-12-12_08-12-12_09-12-12 1.1.1 4.967750946238 -3.662683555109768
bao_29-03-12_29-03-12_08-12-12_09-12-12_09-12-12 1.1.1 4.426929510264 -4.284858598624751
bao_29-03-12_29-03-12_09-12-12_08-12-12_08-12-12 1.1.1 5.245976539475001 -3.590285783356387
bao_29-03-12_29-03-12_09-12-12_09-12-12_08-12-12 1.1.1 4.435250301588 -4.223831809971463
bao_30-01-01_30-01-01_09-08-01_08-08-01_08-08-01 1.1.1 3.0803449997749994 -4.8145940955432085
bao_30-02-06_30-02-06_02-02-06_01-02-06_01-02-06 1.1.1 5.149621648704 -3.496983625129812
bao_30-02-08_30-02-08_07-10-08_06-10-08_06-10-08 1.1.2 2.629722677976 -4.936438158907944
bao_30-02-08_30-02-08_09-10-08_08-10-08_08-10-08 1.1.1 3.034138840562 -4.81118751177113
bao_30-02-08_30-02-08_09-10-08_09-10-08_08-10-08 1.1.1 2.77346747776 -5.496019019062893
bao_30-03-12_30-03-12_06-12-12_06-12-12_06-12-12 1.1.2 2.472924333726 -5.255369920785945
bap_29-05-09_29-05-09_02-03-09_02-03-09_02-03-09_02-03-09_02-03-09 1.1.1 9.813619814115 -3.0116095355554533
bap_30-03-12_30-03-12_08-12-12_08-12-12_08-12-12_08-12-12_08-12-12 1.1.1 3.681232123583 -4.87502193287632
baq_30-02-06_30-02-06_01-02-06_01-02-06_01-02-06_01-02-06 1.1.1 13.644543915235998 -3.0807871676900715
baq_30-02-06_30-02-06_01-02-06_01-02-06_02-02-06_02-02-06 1.1.1 12.86703635024 -3.0879583063821734
baq_30-02-06_30-02-06_03-02-06_03-02-06_04-02-06_04-02-06 1.1.1 19.490322740916 -2.86126908281802
baq_30-02-06_30-02-06_04-02-06_03-02-06_04-02-06_04-02-06 1.1.1 18.899569991484 -2.93971684724142
baq_30-04-05_30-04-05_02-02-05_02-02-05_02-02-05_02-02-05 1.1.1 10.648102966848 -3.010975005493191
baq_30-04-05_30-04-05_03-02-05_03-02-05_03-02-05_03-02-05 1.1.1 19.0773349767 -2.807879530305476
baq_30-04-05_30-04-05_04-02-05_04-02-05_04-02-05_04-02-05 1.1.1 16.990553498737 -2.8532057696493136
baq_31-02-04_29-02-04_04-03-04_04-03-04_04-03-04_04-03-04 1.1.1 23.338322872032 -3.055842751310261
baq_31-03-09_29-03-09_01-05-09_01-05-09_01-05-09_01-05-09 1.1.1 26.369958307647003 -2.8891400217975978
baq_31-03-12_29-03-12_06-12-12_06-12-12_06-12-12_06-12-12 1.1.1 13.023012085506 -2.799406098276826
baq_31-03-12_29-03-12_07-12-12_07-12-12_07-12-12_07-12-12 1.1.1 12.1661594307 -3.2824763241525914
baq_31-04-05_28-04-05_01-02-05_01-02-05_01-02-05_01-02-05 1.1.1 24.258748624668005 -3.027713931813277
baq_31-04-05_28-04-05_02-02-05_02-02-05_02-02-05_02-02-05 1.1.1 20.392175210376998 -2.938382995836895
baq_31-04-05_29-04-05_02-02-05_02-02-05_02-02-05_02-02-05 1.1.1 21.656594863029 -2.820595611097506
bas_28-01-01_28-01-01_07-08-01_07-08-01_07-08-01_07-08-01 1.1.1 7.077529826198 -3.3638384947717404
bas_28-02-05_28-02-05_01-04-05_01-04-05_01-04-05_01-04-05 1.1.1 11.979378158904002 -3.28151908411025
bas_28-02-06_28-02-06_01-02-06_01-02-06_01-02-06_02-02-06 1.1.1 12.404788621968 -3.0489614646359184
bas_28-02-06_28-02-06_03-02-06_04-02-06_04-02-06_03-02-06 1.1.1 16.837059606015 -2.812804884593948
bas_28-02-06_28-02-06_04-02-06_04-02-06_03-02-06_03-02-06 1.1.1 17.09621124393 -2.810891618809494
bas_29-02-06_29-02-06_02-02-06_01-02-06_02-02-06_02-02-06 1.1.1 12.1212027315 -2.868407072022286
bas_29-02-06_29-02-06_03-02-06_03-02-06_03-02-06_03-02-06 1.1.1 19.990548739700003 -3.045075901317024
bas_29-02-06_29-02-06_03-02-06_03-02-06_03-02-06_04-02-06 1.1.1 19.20922761459 -2.769199903729463
bas_29-02-06_29-02-06_03-02-06_03-02-06_04-02-06_03-02-06 1.1.1 18.957074010959 -3.02772392448458
bas_29-02-06_29-02-06_03-02-06_03-02-06_04-02-06_04-02-06 1.1.1 18.814377477483006 -2.871262228510865
bas_29-02-06_29-02-06_03-02-06_04-02-06_04-02-06_04-02-06 1.1.1 17.811968990805 -2.779730513464053
bas_29-02-06_29-02-06_04-02-06_04-02-06_03-02-06_04-02-06 1.1.1 17.307331128996 -2.8819097878949957
bas_29-05-09_29-05-09_04-03-09_04-03-09_04-03-09_04-03-09 1.1.1 17.076179101016997 -2.9538142543118524
bas_30-02-06_30-02-06_03-02-06_03-02-06_03-02-06_04-02-06 1.1.1 12.248663860586998 -3.2312311574257158
bas_30-03-09_30-03-09_05-05-09_05-05-09_05-05-09_05-05-09 1.1.1 18.106523019591 -2.8233280393381497
bat_28-01-01_28-01-01_07-08-01_07-08-01_07-08-01_07-08-01_07-08-01 1.1.1 8.871703123208 -3.237557200637959
bat_28-01-01_28-01-01_09-08-01_09-08-01_09-08-01_09-08-01_09-08-01 1.1.1 8.310617114618 -3.3831412093248567
bat_28-01-01_28-01-01_10-08-01_10-08-01_10-08-01_10-08-01_10-08-01 1.1.1 14.785428847992998 -3.176278293373682
bat_28-02-05_28-02-05_03-04-05_03-04-05_03-04-05_03-04-05_03-04-05 1.1.1 21.239865819392 -2.871737896237775
bat_28-02-05_28-02-05_05-04-05_05-04-05_05-04-05_05-04-05_05-04-05 1.1.1 25.989505616669003 -2.764279913633914
bat_28-02-06_28-02-06_04-02-06_04-02-06_04-02-06_04-02-06_04-02-06 1.1.1 20.103734234769 -2.821821512568724
bat_28-02-08_28-02-08_07-10-08_07-10-08_07-10-08_07-10-08_07-10-08 1.1.1 8.730161119343999 -3.4935534631917458
bat_28-03-09_28-03-09_01-05-09_01-05-09_01-05-09_01-05-09_01-05-09 1.1.1 16.452199808780005 -2.812878537328126
bat_28-03-09_28-03-09_02-05-09_02-05-09_02-05-09_02-05-09_02-05-09 1.1.1 13.794996250200002 -3.070677934677972
bat_28-03-12_28-03-12_09-12-12_09-12-12_09-12-12_09-12-12_09-12-12 1.1.1 7.5641509112 -3.717948138743273
bat_28-05-09_28-05-09_04-03-09_04-03-09_04-03-09_04-03-09_04-03-09 1.1.1 19.871037131652 -2.747732516084006
bat_28-05-09_28-05-09_05-03-09_05-03-09_05-03-09_05-03-09_05-03-09 1.1.1 32.470462759284004 -2.8260198410305395
bat_29-01-01_29-01-01_06-08-01_06-08-01_06-08-01_06-08-01_06-08-01 1.1.1 10.570252352887998 -3.2764212276638984
bat_29-02-06_29-02-06_04-02-06_04-02-06_04-02-06_04-02-06_04-02-06 1.1.1 21.82674200344 -2.8183368220705303
bat_29-02-08_29-02-08_06-10-08_06-10-08_06-10-08_06-10-08_06-10-08 1.1.1 10.23076990584 -3.1888653737383925
bat_29-03-09_29-03-09_02-05-09_02-05-09_02-05-09_02-05-09_02-05-09 1.1.1 14.796928640364 -2.7550542461631826
bat_29-03-12_29-03-12_06-12-12_06-12-12_06-12-12_06-12-12_06-12-12 1.1.1 9.036739951595996 -3.3776761834844318
bat_29-03-12_29-03-12_09-12-12_09-12-12_09-12-12_09-12-12_09-12-12 1.1.1 8.26178615305 -3.320802164526816
bat_29-05-09_29-05-09_03-03-09_03-03-09_03-03-09_03-03-09_03-03-09 1.1.1 23.885403088668003 -2.8928551310462223
bat_29-05-09_29-05-09_05-03-09_05-03-09_05-03-09_05-03-09_05-03-09 1.1.1 33.961260902858 -2.618365991635489
bat_30-02-06_30-02-06_05-02-06_05-02-06_05-02-06_05-02-06_05-02-06 1.1.1 23.18526457607 -2.729314787848085
bat_30-02-08_30-02-08_07-10-08_07-10-08_07-10-08_07-10-08_07-10-08 1.1.1 4.164305088054999 -4.460838537645258
bat_30-03-09_30-03-09_02-05-09_02-05-09_02-05-09_02-05-09_02-05-09 1.1.1 7.97772450984 -3.248080940749111
bat_30-03-09_30-03-09_03-05-09_03-05-09_03-05-09_03-05-09_03-05-09 1.1.1 14.993259758075 -3.007967857890796
bat_30-03-09_30-03-09_05-05-09_05-05-09_05-05-09_05-05-09_05-05-09 1.1.1 23.224991498180003 -2.8996999199183766
bat_30-04-05_30-04-05_01-02-05_01-02-05_01-02-05_01-02-05_01-02-05 1.1.1 9.822683608979998 -3.286121773355418
bat_30-04-05_30-04-05_04-02-05_04-02-05_04-02-05_04-02-05_04-02-05 1.1.1 12.488640479927996 -2.987719234413007
baw_31-01-01_29-01-01_06-08-01_06-08-01_06-08-01_06-08-01_06-08-01 1.1.1 7.06481936101 -3.71995626228837
baz-a_28-04-05_16-04-05_28-04-05_16-04-05_02-02-05_02-02-05_02-02-05_02-02-05_02-02-05_02-02-05_02-02-05_02-02-05 1.1.1 34.65801655122 -2.705224727937083
baz-a_28-04-05_16-04-05_28-04-05_16-04-05_03-02-05_03-02-05_03-02-05_03-02-05_03-02-05_03-02-05_03-02-05_03-02-05 1.1.1 57.75152796409501 -2.749696564102903
baz-a_28-04-05_16-04-05_28-04-05_16-04-05_04-02-05_04-02-05_04-02-05_04-02-05_04-02-05_04-02-05_04-02-05_04-02-05 1.1.1 51.249541022644 -2.745311542014754
baz_31-04-05_29-04-05_04-02-05_04-02-05_04-02-05 1.1.1 18.763262164644 -3.0380844962658906
baz_31-04-05_29-04-05_05-02-05_05-02-05_05-02-05 1.1.1 30.569862651567 -2.759063812547039
bba_29-02-06_28-02-06_01-02-06_01-02-06_02-02-06 1.1.1 7.240137649868 -3.166858501886263
bba_29-02-06_28-02-06_04-02-06_03-02-06_03-02-06 1.1.1 9.843238116154998 -3.1363355886475115
bbf_31-01-01_29-01-01_07-08-01_06-08-01 1.1.1 3.958803939786 -4.377729431910906
bbf_31-02-04_29-02-04_01-03-04_01-03-04 1.1.1 4.897916596539999 -4.023766437505854
bbf_31-03-12_29-03-12_08-12-12_09-12-12 1.1.1 3.855386021112 -4.3435342146253255
bbf_31-03-12_29-03-12_09-12-12_09-12-12 1.1.1 3.2600559326400003 -4.442534569761692
bbg_28-02-06_29-02-06_02-02-06_01-02-06_01-02-06 1.1.1 5.721530836879 -3.532722900395524
bbg_28-02-08_28-02-08_06-10-08_07-10-08_06-10-08 1.2.1 3.650205699626 -4.6129510745773405
bbg_28-03-12_28-03-12_07-12-12_07-12-12_06-12-12 1.2.1 3.232596092255 -4.329631049776067
bbg_28-03-12_29-03-12_07-12-12_07-12-12_07-12-12 1.1.1 3.4730559415630013 -4.030710072683898
bbg_28-04-05_29-04-05_04-02-05_04-02-05_04-02-05 1.1.1 7.200639687835999 -3.5250037442059585
bbg_29-02-06_28-02-06_01-02-06_01-02-06_01-02-06 1.1.1 6.551740049717999 -3.596816801350996
bbg_29-02-08_29-02-08_09-10-08_08-10-08_08-10-08 1.1.1 3.638797836785 -4.296331350362725
bbg_30-03-12_30-03-12_06-12-12_07-12-12_07-12-12 2.2.1 2.0028587473440007 -6.005942798824604
bbh_29-02-06_28-02-06_04-02-06_04-02-06_03-02-06 1.1.1 8.703642895514 -3.447829796307012
bbh_29-03-12_29-03-12_09-12-12_08-12-12_09-12-12 1.1.1 4.0306768306350005 -4.658590913139323
bbh_31-02-06_29-02-06_04-02-06_03-02-06_04-02-06 1.1.1 9.8155214971 -3.2614043621371303
bbk_31-05-09_29-05-09_03-03-09_03-03-09_03-03-09_03-03-09_03-03-09 1.1.1 8.995555373769998 -3.271792756061449
bbm_28-01-01_29-01-01_10-08-01_10-08-01_10-08-01_10-08-01 1.1.1 7.0042719581120005 -3.361573366148184
bbn_31-01-01_29-01-01_09-08-01_09-08-01_09-08-01 1.1.1 6.434272823580001 -3.5299002203971024
bbn_31-02-06_29-02-06_03-02-06_04-02-06_03-02-06 1.1.1 16.779693979775995 -2.8969120704401288
bbn_31-02-06_29-02-06_04-02-06_03-02-06_03-02-06 1.1.1 15.987206679676005 -3.044054669682927
bbn_31-03-12_29-03-12_08-12-12_08-12-12_08-12-12 1.1.1 7.170077775300001 -3.734961043787781
bbo_31-01-01_29-01-01_06-08-01_06-08-01_06-08-01_06-08-01 1.1.1 8.024656812065997 -3.254083673869767
bbo_31-01-01_29-01-01_07-08-01_07-08-01_07-08-01_07-08-01 1.1.1 7.354748309132001 -3.379839390278345
bbo_31-01-01_29-01-01_08-08-01_08-08-01_08-08-01_08-08-01 1.1.1 8.498516789812 -3.50051250313131
bbo_31-01-01_29-01-01_09-08-01_09-08-01_09-08-01_09-08-01 1.1.1 7.012849054916001 -3.5762565879486345
bbo_31-01-01_29-01-01_10-08-01_10-08-01_10-08-01_10-08-01 1.1.1 11.9095641495 -3.3794038440160024
bbo_31-02-04_29-02-04_04-03-04_04-03-04_04-03-04_04-03-04 1.1.1 11.0981870944 -3.1933660270080404
bbo_31-02-04_29-02-04_05-03-04_05-03-04_05-03-04_05-03-04 1.1.1 19.089320264238 -3.014065277655117
bbo_31-02-06_29-02-06_01-02-06_01-02-06_01-02-06_01-02-06 1.1.1 11.664504633891 -3.2150133461869608
bbo_31-02-06_29-02-06_02-02-06_02-02-06_02-02-06_02-02-06 1.1.1 10.172696302384 -3.161655438093921
bbo_31-02-06_29-02-06_03-02-06_03-02-06_03-02-06_03-02-06 1.1.1 16.235684797686 -2.97854933232527
bbo_31-02-06_29-02-06_04-02-06_04-02-06_04-02-06_04-02-06 1.1.1 15.812028366400002 -2.97378289892478
bbo_31-02-06_29-02-06_05-02-06_05-02-06_05-02-06_05-02-06 1.1.1 25.119662387112 -2.812888999880266
bbo_31-02-08_28-02-08_06-10-08_06-10-08_06-10-08_06-10-08 1.1.1 7.298542584937001 -3.335609125722077
bbo_31-02-08_29-02-08_07-10-08_07-10-08_07-10-08_07-10-08 1.1.1 7.2028701581400005 -3.474338703394788
bbo_31-02-08_29-02-08_08-10-08_08-10-08_08-10-08_08-10-08 1.1.1 8.29231208835 -3.246360175128436
bbo_31-02-08_29-02-08_09-10-08_09-10-08_09-10-08_09-10-08 1.1.1 6.821426805648 -3.942843377316713
bbo_31-03-09_29-03-09_01-05-09_01-05-09_01-05-09_01-05-09 1.1.1 13.251277597533 -3.055284351084424
bbo_31-03-09_29-03-09_02-05-09_02-05-09_02-05-09_02-05-09 1.1.1 11.102627687779998 -3.272085419855192
bbo_31-03-09_29-03-09_03-05-09_03-05-09_03-05-09_03-05-09 1.1.1 17.999789622708 -2.970292441237424
bbo_31-03-09_29-03-09_04-05-09_04-05-09_04-05-09_04-05-09 1.1.1 16.205296230864 -2.9419272802699554
bbo_31-03-12_28-03-12_06-12-12_06-12-12_06-12-12_06-12-12 1.1.1 6.54227364115 -3.637965451585455
bbo_31-03-12_29-03-12_06-12-12_06-12-12_06-12-12_06-12-12 1.1.1 6.816797584545001 -3.3648364064061806
bbo_31-03-12_29-03-12_08-12-12_08-12-12_08-12-12_08-12-12 1.1.1 7.504945947445999 -3.3321254911086235
bbo_31-03-12_29-03-12_09-12-12_09-12-12_09-12-12_09-12-12 1.1.1 6.166706951819999 -3.598179785824461
bbo_31-03-12_29-03-12_10-12-12_10-12-12_10-12-12_10-12-12 1.1.1 10.646934505922 -3.134032117796337
bbp_31-02-06_29-02-06_01-02-06_01-02-06_01-02-06 1.1.1 12.508769007 -3.029771184784423
bbp_31-02-06_29-02-06_01-02-06_01-02-06_02-02-06 1.1.1 11.937398321658 -3.071044481095945
bbp_31-02-06_29-02-06_02-02-06_01-02-06_02-02-06 1.1.1 11.353880893314 -2.9392015050152964
bbp_31-02-06_29-02-06_03-02-06_03-02-06_03-02-06 1.1.1 18.784626455056 -2.846866658223155
bbp_31-02-06_29-02-06_03-02-06_03-02-06_04-02-06 1.1.1 18.85538720855 -3.008631569972104
bbp_31-02-06_29-02-06_03-02-06_04-02-06_04-02-06 1.1.1 18.090623898893 -2.97644206551868
bbp_31-02-06_29-02-06_04-02-06_04-02-06_03-02-06 1.1.1 17.008800723117 -2.87897067390909
bbp_31-02-06_29-02-06_04-02-06_04-02-06_04-02-06 1.1.1 16.645210821727 -2.8959230341480158
bbp_31-02-08_29-02-08_09-10-08_09-10-08_09-10-08 1.1.1 6.958551029274 -3.848818841186537
bbp_31-02-08_29-02-08_10-10-08_10-10-08_10-10-08 1.1.1 11.947787657232 -3.072768930846927
bbp_31-03-09_29-03-09_03-05-09_03-05-09_03-05-09 1.1.1 17.727879692562 -2.812837887716334
bbp_31-03-09_29-03-09_05-05-09_05-05-09_05-05-09 1.1.1 26.377827587232 -2.8796636548903325
bbp_31-03-12_29-03-12_07-12-12_07-12-12_07-12-12 1.1.1 6.695371584720001 -3.565593936178691
bbp_31-03-12_29-03-12_08-12-12_08-12-12_08-12-12 1.1.1 7.654147625902 -3.378943730220396
bbp_31-03-12_29-03-12_09-12-12_09-12-12_09-12-12 1.1.1 6.269858609040001 -4.121178893421823
bbq_31-01-01_28-01-01_07-08-01_07-08-01_07-08-01_07-08-01 1.1.1 7.848165749463 -3.479658472539302
bbq_31-01-01_29-01-01_07-08-01_07-08-01_07-08-01_07-08-01 1.1.1 8.184826624391999 -3.205195731442444
bbq_31-01-01_29-01-01_08-08-01_08-08-01_08-08-01_08-08-01 1.1.1 9.434765802225 -3.305920738351398
bbq_31-01-01_29-01-01_09-08-01_09-08-01_09-08-01_09-08-01 1.1.1 7.587038159442 -3.4376572382519197
bbq_31-01-01_29-01-01_10-08-01_10-08-01_10-08-01_10-08-01 1.1.1 13.462304570873 -3.076371148177879
bbq_31-02-05_28-02-05_04-04-05_04-04-05_04-04-05_04-04-05 1.1.1 9.229257706786004 -3.0560667155342114
bbq_31-02-06_29-02-06_01-02-06_01-02-06_01-02-06_01-02-06 1.1.1 13.438541643748 -3.0483871788106365
bbq_31-02-06_29-02-06_02-02-06_02-02-06_02-02-06_02-02-06 1.1.1 12.078163809070004 -2.9117742983199597
bbq_31-02-06_29-02-06_03-02-06_03-02-06_03-02-06_03-02-06 1.1.1 18.259266288428 -2.8581629333569376
bbq_31-02-06_29-02-06_05-02-06_05-02-06_05-02-06_05-02-06 1.1.1 28.586768231809 -2.8955278394019026
bbq_31-02-08_28-02-08_08-10-08_08-10-08_08-10-08_08-10-08 1.1.1 8.84333697121 -3.225908194542669
bbq_31-02-08_29-02-08_06-10-08_06-10-08_06-10-08_06-10-08 1.1.1 8.645067701667001 -3.3925661658069672
bbq_31-02-08_29-02-08_07-10-08_07-10-08_07-10-08_07-10-08 1.1.1 7.94376588888 -3.268328513551992
bbq_31-02-08_29-02-08_08-10-08_08-10-08_08-10-08_08-10-08 1.1.1 9.218949461495 -2.9860600972971105
bbq_31-02-08_29-02-08_09-10-08_09-10-08_09-10-08_09-10-08 1.1.1 7.42289744142 -3.915221878619316
bbq_31-02-08_29-02-08_10-10-08_10-10-08_10-10-08_10-10-08 1.1.1 12.991107615822004 -3.1575773082577325
bbq_31-03-09_29-03-09_01-05-09_01-05-09_01-05-09_01-05-09 1.1.1 14.825310183382 -2.8871741357302643
bbq_31-03-09_29-03-09_02-05-09_02-05-09_02-05-09_02-05-09 1.1.1 12.547285652106 -3.03687159886399
bbq_31-03-12_29-03-12_06-12-12_06-12-12_06-12-12_06-12-12 1.1.1 7.745947185846002 -3.412401277845967
bbq_31-03-12_29-03-12_08-12-12_08-12-12_08-12-12_08-12-12 1.1.1 8.374315544889 -3.436523263007631
bbq_31-03-12_29-03-12_09-12-12_09-12-12_09-12-12_09-12-12 1.1.1 6.954252540216 -3.7243120907060434
bbq_31-03-12_29-03-12_10-12-12_10-12-12_10-12-12_10-12-12 1.1.1 12.132712739404 -3.1950286703253936
bbq_31-05-09_29-05-09_03-03-09_03-03-09_03-03-09_03-03-09 1.1.1 20.462095659032 -2.732507604469561
bbq_31-05-09_29-05-09_04-03-09_04-03-09_04-03-09_04-03-09 1.1.1 18.255791912742 -2.769768665514965
bbr_31-02-06_28-02-06_01-02-06_01-02-06_02-02-06 1.1.1 7.271847106860003 -3.429067594205592
bbr_31-03-12_29-03-12_08-12-12_08-12-12_08-12-12 1.1.1 5.0770491479 -4.05180203898056
bbs_29-02-04_31-02-04_02-03-04_02-03-04_02-03-04 1.1.1 5.295007636536002 -3.60919938132295
bbs_29-02-06_31-02-06_02-02-06_02-02-06_01-02-06 1.1.1 7.746896287500001 -3.2798580502773897
bbs_29-02-06_31-02-06_03-02-06_04-02-06_04-02-06 1.1.1 10.763689701008 -3.233615283271412
bbs_29-02-06_31-02-06_04-02-06_03-02-06_04-02-06 1.1.1 10.915023184384 -3.2142320606150188
bbs_29-03-09_31-03-09_04-05-09_04-05-09_04-05-09 1.1.1 10.796089364704 -3.1578465635967934
bbs_29-03-12_31-03-12_10-12-12_10-12-12_10-12-12 1.1.1 7.205874875892 -3.126093332286283
bbv_31-01-01_29-01-01_07-08-01_07-08-01_07-08-01 1.1.1 5.799866526089001 -3.653437459151967
bbv_31-02-04_29-02-04_05-03-04_05-03-04_05-03-04 1.1.1 15.168329828871997 -3.043398891930248
bbv_31-02-06_29-02-06_03-02-06_03-02-06_03-02-06 1.1.1 13.969937509 -3.1011655681728
bbv_31-02-06_29-02-06_04-02-06_03-02-06_03-02-06 1.1.1 13.865711507901 -3.1891009202948566
bbv_31-03-12_29-03-12_06-12-12_06-12-12_06-12-12 1.1.1 5.360284605717001 -3.882075907306005
bbv_31-03-12_29-03-12_10-12-12_10-12-12_10-12-12 1.1.1 8.28062955258 -3.2195065479608536
bbv_31-05-09_29-05-09_02-03-09_02-03-09_02-03-09 1.1.1 8.712468240480002 -3.0041930407917734
bbw_29-01-01_31-01-01_07-08-01_07-08-01_07-08-01 1.1.1 6.942251061984999 -3.772448546490696
bbw_29-02-04_31-02-04_04-03-04_04-03-04_04-03-04 1.1.1 11.2255572277 -3.2625430085665066
bbw_29-02-04_31-02-04_05-03-04_05-03-04_05-03-04 1.1.1 19.11588088942 -2.8754522668418723
bbw_29-02-06_31-02-06_02-02-06_01-02-06_01-02-06 1.1.1 12.301318065741002 -3.108847134007408
bbw_29-02-06_31-02-06_04-02-06_03-02-06_03-02-06 1.1.1 14.444014939400995 -3.0278520269467326
bbw_29-02-08_31-02-08_06-10-08_06-10-08_06-10-08 1.1.1 7.355693044603999 -3.763345083480184
bbw_29-02-08_31-02-08_10-10-08_10-10-08_10-10-08 1.1.1 11.142606789100002 -3.1592330223175464
bbw_29-05-09_31-05-09_03-03-09_03-03-09_03-03-09 1.1.1 17.069687449682 -2.891785262941905
bbx_29-01-01_31-01-01_07-08-01_07-08-01_07-08-01 1.1.1 5.693724021395 -3.532815980078546
bbx_29-01-01_31-01-01_09-08-01_09-08-01_09-08-01 1.1.1 5.42321945159 -3.813216773811019
bbx_29-02-04_31-02-04_03-03-04_03-03-04_03-03-04 1.1.1 10.404106144458002 -2.999005326703971
bbx_29-02-04_31-02-04_05-03-04_05-03-04_05-03-04 1.1.1 15.211021437548998 -3.036999319001428
bbx_29-02-06_31-02-06_01-02-06_01-02-06_01-02-06 1.1.1 10.4348726961 -3.087332827932496
bbx_29-02-06_31-02-06_01-02-06_01-02-06_02-02-06 1.1.1 9.415095656106 -2.922265460695204
bbx_29-02-06_31-02-06_02-02-06_02-02-06_02-02-06 1.1.1 8.422106578376 -3.2081077465498
bbx_29-02-06_31-02-06_03-02-06_03-02-06_04-02-06 1.1.1 14.156728208996 -3.008733254233125
bbx_29-02-06_31-02-06_03-02-06_04-02-06_04-02-06 1.1.1 12.258972596293 -3.05679971209877
bbx_29-02-06_31-02-06_04-02-06_03-02-06_04-02-06 1.1.1 13.636363890564 -3.078729361875981
bbx_29-02-06_31-02-06_04-02-06_04-02-06_04-02-06 1.1.1 12.278881233299998 -3.1217474217944967
bbx_29-03-09_31-03-09_05-05-09_05-05-09_05-05-09 1.1.1 19.704608845760003 -2.746667488105916
bbx_29-03-12_31-03-12_09-12-12_09-12-12_09-12-12 1.1.1 4.995637045035 -4.233454572782523
bby_28-02-04_28-02-04_01-03-04_01-03-04_01-03-04_01-03-04_01-03-04_01-03-04 1.1.1 8.786768233558002 -3.394350607239796
bby_28-02-04_28-02-04_02-03-04_02-03-04_02-03-04_02-03-04_02-03-04_02-03-04 1.1.1 7.255797223787 -3.3623134864115483
bby_28-03-09_28-03-09_01-05-09_01-05-09_01-05-09_01-05-09_01-05-09_01-05-09 1.1.1 12.795160891645 -2.9236784925558488
bby_29-01-01_29-01-01_06-08-01_06-08-01_06-08-01_06-08-01_06-08-01_06-08-01 1.1.1 8.097660026049999 -3.315435655066351
bby_29-01-01_29-01-01_07-08-01_07-08-01_07-08-01_07-08-01_07-08-01_07-08-01 1.1.1 7.408845828570998 -3.2419984380033675
bby_29-01-01_29-01-01_08-08-01_08-08-01_08-08-01_08-08-01_08-08-01_08-08-01 1.1.1 8.595517083506 -3.217080530658994
bby_29-02-04_29-02-04_02-03-04_02-03-04_02-03-04_02-03-04_02-03-04_02-03-04 1.1.1 7.80145093236 -3.4092309366362974
bby_29-02-04_29-02-04_04-03-04_04-03-04_04-03-04_04-03-04_04-03-04_04-03-04 1.1.1 11.737450091142 -2.7645207165999683
bby_29-02-08_29-02-08_07-10-08_07-10-08_07-10-08_07-10-08_07-10-08_07-10-08 1.1.1 7.205322882581999 -3.5915921957002674
bby_29-02-08_29-02-08_09-10-08_09-10-08_09-10-08_09-10-08_09-10-08_09-10-08 1.1.1 6.799539334950001 -3.4288012382476225
bby_29-03-09_29-03-09_01-05-09_01-05-09_01-05-09_01-05-09_01-05-09_01-05-09 1.1.1 13.451741234288 -3.1097305867297527
bby_29-03-09_29-03-09_05-05-09_05-05-09_05-05-09_05-05-09_05-05-09_05-05-09 1.1.1 25.983818297246 -2.802888341816053
bby_29-03-12_29-03-12_06-12-12_06-12-12_06-12-12_06-12-12_06-12-12_06-12-12 1.1.1 6.84789060299 -3.542599507264271
bby_29-03-12_29-03-12_07-12-12_07-12-12_07-12-12_07-12-12_07-12-12_07-12-12 1.1.1 6.432281317410001 -3.6705644506720088
bby_29-03-12_29-03-12_08-12-12_08-12-12_08-12-12_08-12-12_08-12-12_08-12-12 1.1.1 7.5623835373600015 -3.57553114219738
bby_29-03-12_29-03-12_09-12-12_09-12-12_09-12-12_09-12-12_09-12-12_09-12-12 1.1.1 6.316346119002 -3.635730599171465
bby_29-04-05_29-04-05_04-02-05_04-02-05_04-02-05_04-02-05_04-02-05_04-02-05 1.1.1 16.259421374080002 -2.7346922650594654
bby_29-05-09_29-05-09_02-03-09_02-03-09_02-03-09_02-03-09_02-03-09_02-03-09 1.1.1 11.469580604205 -2.96288438555356
bby_30-03-12_30-03-12_06-12-12_06-12-12_06-12-12_06-12-12_06-12-12_06-12-12 1.1.1 3.2859324026100007 -4.414072546091853
bby_30-05-09_30-05-09_04-03-09_04-03-09_04-03-09_04-03-09_04-03-09_04-03-09 1.1.1 10.211491647127 -3.03931448311958
bbz_28-02-05_28-02-05_03-04-05_03-04-05_03-04-05_03-04-05_03-04-05 1.1.1 13.984329845057 -3.0816556726871416
bbz_28-02-08_28-02-08_10-10-08_10-10-08_10-10-08_10-10-08_10-10-08 1.1.1 10.116787374624 -3.3789053696401683
bbz_29-01-01_29-01-01_08-08-01_08-08-01_08-08-01_08-08-01_08-08-01 1.1.1 7.766330820502002 -3.3695060451831003
bbz_29-01-01_29-01-01_10-08-01_10-08-01_10-08-01_10-08-01_10-08-01 1.1.1 10.920524963324 -3.0676027414406075
bbz_29-02-04_29-02-04_02-03-04_02-03-04_02-03-04_02-03-04_02-03-04 1.1.1 7.091439714108001 -3.313030102697392
bbz_29-02-05_29-02-05_02-04-05_02-04-05_02-04-05_02-04-05_02-04-05 1.1.1 9.686464778690002 -3.2398500791637894
bbz_29-02-06_29-02-06_05-02-06_05-02-06_05-02-06_05-02-06_05-02-06 1.1.1 23.630186203519 -2.781915448890261
bbz_29-02-06_29-02-06_None_None_None_None_None 1.1.2 5.758629279225001 -3.588747267607708
bbz_29-02-08_29-02-08_08-10-08_08-10-08_08-10-08_08-10-08_08-10-08 1.1.1 7.615417685890003 -3.422132026621581
bbz_29-02-08_29-02-08_09-10-08_09-10-08_09-10-08_09-10-08_09-10-08 1.1.1 6.338062394508001 -3.665832777135835
bbz_29-03-04_29-03-04_03-02-04_03-02-04_03-02-04_03-02-04_03-02-04 1.1.1 12.062257293235998 -3.201941393490702
bbz_29-03-12_29-03-12_08-12-12_08-12-12_08-12-12_08-12-12_08-12-12 1.1.1 7.03656800928 -3.473098733657696
bbz_29-03-12_29-03-12_09-12-12_09-12-12_09-12-12_09-12-12_09-12-12 1.1.1 5.859966634203 -4.008997546873675
bbz_29-03-12_29-03-12_10-12-12_10-12-12_10-12-12_10-12-12_10-12-12 1.1.1 9.868048637149998 -3.303131998201392
bbz_29-05-09_29-05-09_03-03-09_03-03-09_03-03-09_03-03-09_03-03-09 1.1.1 16.380530814215998 -2.9579873785268163
bbz_30-02-05_30-02-05_01-04-05_01-04-05_01-04-05_01-04-05_01-04-05 1.1.1 6.576991450383999 -3.196939453995366
bbz_30-02-06_30-02-06_03-02-06_03-02-06_03-02-06_03-02-06_03-02-06 1.1.1 11.138109127199998 -3.0549138453906104
bbz_30-03-12_30-03-12_10-12-12_10-12-12_10-12-12_10-12-12_10-12-12 1.1.1 5.334965081119999 -3.830834378375236
bca_28-02-06_28-02-06_03-02-06_03-02-06_03-02-06_03-02-06_03-02-06_03-02-06 1.1.1 16.620579746880004 -2.950336359165591
bca_30-01-01_30-01-01_09-08-01_09-08-01_09-08-01_09-08-01_09-08-01_09-08-01 1.1.1 3.4936180398750003 -5.457867212251792
bcb_28-01-01_28-01-01_08-08-01_08-08-01_08-08-01_08-08-01_08-08-01 1.1.1 5.932778595535999 -3.759471148835905
bcb_30-04-05_30-04-05_02-02-05_02-02-05_02-02-05_02-02-05_02-02-05 1.1.1 4.606444666292001 -3.651059239026912
bcd_29-02-04_29-02-04_01-03-04_01-03-04_01-03-04_01-03-04_01-03-04_01-03-04 1.1.1 7.730750629368 -3.510334159724944
bcf_28-02-04_28-02-04_02-03-04_02-03-04_02-03-04_02-03-04_02-03-04_02-03-04_02-03-04 1.1.1 6.2871947495940015 -3.510764895744106
bcf_28-03-09_28-03-09_02-05-09_02-05-09_02-05-09_02-05-09_02-05-09_02-05-09_02-05-09 1.1.1 9.053713469322002 -3.011705729995687
bcf_29-01-01_29-01-01_06-08-01_06-08-01_06-08-01_06-08-01_06-08-01_06-08-01_06-08-01 1.1.1 6.97274235681 -3.182843980042663
bcf_29-01-01_29-01-01_08-08-01_08-08-01_08-08-01_08-08-01_08-08-01_08-08-01_08-08-01 1.1.1 7.391160286510001 -3.240815426549309
bcf_29-01-01_29-01-01_09-08-01_09-08-01_09-08-01_09-08-01_09-08-01_09-08-01_09-08-01 1.1.1 6.007566002399 -3.5530769807134472
bcf_29-01-01_29-01-01_10-08-01_10-08-01_10-08-01_10-08-01_10-08-01_10-08-01_10-08-01 1.1.1 10.210761743682 -3.1184394366756947
bcf_29-02-04_29-02-04_03-03-04_03-03-04_03-03-04_03-03-04_03-03-04_03-03-04_03-03-04 1.1.1 11.574951285204998 -2.964953591275421
bcf_29-02-04_29-02-04_05-03-04_05-03-04_05-03-04_05-03-04_05-03-04_05-03-04_05-03-04 1.1.1 17.088353579114997 -2.8593657738836136
bcf_29-02-06_29-02-06_03-02-06_03-02-06_03-02-06_03-02-06_03-02-06_03-02-06_03-02-06 1.1.1 15.712994319933998 -2.943301343917574
bcf_29-02-08_29-02-08_06-10-08_06-10-08_06-10-08_06-10-08_06-10-08_06-10-08_06-10-08 1.1.1 6.804508951375001 -3.7081142312970914
bcf_29-02-08_29-02-08_08-10-08_08-10-08_08-10-08_08-10-08_08-10-08_08-10-08_08-10-08 1.1.1 7.217320015308001 -3.279833052411796
bcf_29-02-08_29-02-08_10-10-08_10-10-08_10-10-08_10-10-08_10-10-08_10-10-08_10-10-08 1.1.1 9.952953556501996 -3.298816555077606
bcf_29-03-12_29-03-12_07-12-12_07-12-12_07-12-12_07-12-12_07-12-12_07-12-12_07-12-12 1.1.1 5.615366290958 -3.853786077061363
bcf_29-03-12_29-03-12_08-12-12_08-12-12_08-12-12_08-12-12_08-12-12_08-12-12_08-12-12 1.1.1 6.5980213410960005 -3.610534419372527
bcf_29-03-12_29-03-12_09-12-12_09-12-12_09-12-12_09-12-12_09-12-12_09-12-12_09-12-12 1.1.1 5.534572458515002 -3.718774260448433
bcf_29-03-12_29-03-12_10-12-12_10-12-12_10-12-12_10-12-12_10-12-12_10-12-12_10-12-12 1.1.1 9.241295968684 -3.2981955475364564
bcf_29-04-05_29-04-05_05-02-05_05-02-05_05-02-05_05-02-05_05-02-05_05-02-05_05-02-05 1.1.1 21.638651236374997 -2.7832083227351854
bcf_29-05-09_29-05-09_01-03-09_01-03-09_01-03-09_01-03-09_01-03-09_01-03-09_01-03-09 1.1.1 11.402886064004996 -3.440839430665831
bcf_30-03-12_30-03-12_06-12-12_06-12-12_06-12-12_06-12-12_06-12-12_06-12-12_06-12-12 1.1.1 2.908273206656 -4.927996649748268
bcf_30-04-05_30-04-05_04-02-05_04-02-05_04-02-05_04-02-05_04-02-05_04-02-05_04-02-05 1.1.1 8.63450784592 -3.095074860112556
bcf_30-04-05_30-04-05_05-02-05_05-02-05_05-02-05_05-02-05_05-02-05_05-02-05_05-02-05 1.1.1 14.919872377974 -2.94474583718443
bcf_30-05-09_30-05-09_01-03-09_01-03-09_01-03-09_01-03-09_01-03-09_01-03-09_01-03-09 1.1.1 6.721086032360001 -3.491735939637314
bcj_28-04-05_28-04-05_02-02-05_02-02-05_02-02-05_02-02-05 1.1.1 16.49383425625 -3.10127832075381
bcm_28-01-01_28-01-01_06-08-01_07-08-01_06-08-01 1.1.1 3.5909242638900003 -4.143044562117255
bcm_28-02-06_29-02-06_03-02-06_04-02-06_03-02-06 1.1.1 8.826245574311999 -3.259612452872748
bcm_28-02-06_29-02-06_04-02-06_03-02-06_03-02-06 1.1.1 8.4123503841 -3.3470504036050546
bcm_28-02-08_29-02-08_06-10-08_06-10-08_06-10-08 1.1.1 4.111366371306 -4.083523594636531
bcm_29-01-01_29-01-01_06-08-01_07-08-01_06-08-01 1.1.1 4.000182974769 -4.187705333985327
bcm_29-01-01_29-01-01_07-08-01_06-08-01_07-08-01 1.1.1 3.943466201205 -4.429586107779695
bcm_29-02-08_29-02-08_06-10-08_07-10-08_06-10-08 1.1.1 4.072652762040001 -3.8779844482381978
bcm_29-02-08_29-02-08_08-10-08_09-10-08_08-10-08 1.1.1 4.068658406289001 -4.253834781183644
bcm_29-02-08_29-02-08_09-10-08_09-10-08_08-10-08 1.1.1 3.72695347344 -4.409621508719195
bcm_29-03-12_29-03-12_07-12-12_06-12-12_07-12-12 1.1.1 3.558341170276 -4.605919552843791
bcm_30-01-01_30-01-01_08-08-01_08-08-01_09-08-01 2.2.1 2.3634060705 -5.24087928313941
bcn_28-01-01_29-01-01_07-08-01_07-08-01_07-08-01_07-08-01 1.1.1 4.004079493503999 -4.089149581005724
bcn_28-02-04_29-02-04_01-03-04_01-03-04_01-03-04_01-03-04 1.1.1 5.141262544320001 -3.8692643243754032
bcn_29-02-06_29-02-06_04-02-06_04-02-06_04-02-06_03-02-06 1.1.1 6.242449896015001 -3.7842195303317374
bcn_30-02-06_30-02-06_02-02-06_01-02-06_02-02-06_01-02-06 1.1.1 3.66774574068 -4.026374429020285
bcp_29-01-01_31-01-01_06-08-01_06-08-01_06-08-01_06-08-01 1.1.1 4.58541788878 -4.006793699531468
bcp_29-02-04_31-02-04_02-03-04_02-03-04_02-03-04_02-03-04 1.1.1 4.375705223485999 -3.9792660254445575
bcp_29-02-04_31-02-04_03-03-04_03-03-04_03-03-04_03-03-04 1.1.1 7.394232767450002 -3.5496361496543
bcp_29-02-08_31-02-08_06-10-08_06-10-08_06-10-08_06-10-08 1.1.1 4.365410898744 -4.25650750415901
bcp_29-02-08_31-02-08_07-10-08_07-10-08_07-10-08_07-10-08 1.1.1 4.06640926398 -3.855567768436496
bcp_29-03-09_31-03-09_01-05-09_01-05-09_01-05-09_01-05-09 1.1.1 7.417788328317 -3.2806359964129848
bcp_29-03-12_31-03-12_06-12-12_06-12-12_06-12-12_06-12-12 1.1.1 3.768551818188 -4.048354136636079
bcp_29-03-12_31-03-12_07-12-12_07-12-12_07-12-12_07-12-12 1.1.1 3.573326497027 -4.140351602963754
bcp_29-04-05_31-04-05_05-02-05_05-02-05_05-02-05_05-02-05 1.1.1 12.033758342224 -3.138530305593795
bcp_29-05-09_31-05-09_04-03-09_04-03-09_04-03-09_04-03-09 1.1.1 8.822022374449999 -3.469425915400712
bcp_30-02-08_30-02-08_09-10-08_09-10-08_09-10-08_09-10-08 1.2.1 1.7401587411025004 -7.462109026350677
bcq_29-02-06_29-02-06_01-02-06_01-02-06_01-02-06_01-02-06 1.1.1 8.548972179120002 -3.549858987299197
bcr_28-05-09_29-05-09_02-03-09_02-03-09_02-03-09_02-03-09 1.1.1 9.27043060602 -3.263971828587391
bcr_28-05-09_29-05-09_04-03-09_04-03-09_04-03-09_04-03-09 1.1.1 13.698849008987 -2.825704797766913
bcr_29-04-05_28-04-05_01-02-05_01-02-05_01-02-05_01-02-05 1.1.1 11.322853742615996 -3.10927667493299
bcr_29-04-05_28-04-05_02-02-05_02-02-05_02-02-05_02-02-05 1.1.1 9.267417158685 -3.109769289350439
bcr_29-04-05_29-04-05_01-02-05_01-02-05_01-02-05_01-02-05 1.1.1 12.026141153766 -3.040214145395985
bcr_29-04-05_29-04-05_02-02-05_02-02-05_02-02-05_02-02-05 1.1.1 10.204504682302 -2.9239891671674285
bcr_29-04-05_29-04-05_03-02-05_03-02-05_03-02-05_03-02-05 1.1.1 16.817347485785 -2.957451610623744
bcu-f_17-08-01_01-01-01_01-01-01_01-01-01 1.1.1 3.2557303874370005 -4.614348043117236
bcu-g_11-02-06_03-02-06_03-02-06_03-02-06 1.1.2 3.0335182470110005 -4.627048984974263
bcu-g_11-03-12_08-12-12_08-12-12_08-12-12 2.2.1 1.555533815466 -8.69736102392796
bcu-g_12-03-04_02-02-04_02-02-04_02-02-04 2.1.1 1.6041094885599998 -6.393632244359501
bcu-g_13-02-05_02-04-05_02-04-05_02-04-05 2.2.1 2.181004558498 -5.518972666788411
bcu-g_13-03-09_02-05-09_02-05-09_02-05-09 1.1.1 4.358330384421 -3.892931617646447
bcu-g_13-03-09_05-05-09_05-05-09_05-05-09 1.1.1 5.338777862465 -3.621921566752493
bcu-g_13-05-09_01-03-09_01-03-09_01-03-09 1.1.1 4.401070970018 -4.46101984736898
bcu-g_14-02-06_05-02-06_05-02-06_05-02-06 1.1.1 11.454046845471998 -3.1056425523921685
[...]
zeb_29-03-12_29-03-12_31-03-12_10-12-12_10-12-12_10-12-12_10-12-12_10-12-12_10-12-12_10-12-12_10-12-12_10-12-12 1.1.1 9.049182040632 -3.285406683866633
zhc_2_02-01-01_3_21-08-01_4_25-08-01 1.1.1 8.078444673414 -3.509995454066466
zhc_2_02-03-04_3_16-02-04_4_31-02-04 1.1.1 7.08147644048 -3.566828566956194
zhc_2_02-03-09_3_16-05-09_4_31-05-09 1.1.1 10.622485118624 -3.164302282160216
zhc_2_02-03-12_3_21-12-12_4_25-12-12 1.1.1 7.315225450766999 -3.296797376327449
zhc_2_04-01-01_3_21-08-01_4_25-08-01 1.1.1 11.82404389936 -3.109326264076196
zhc_2_05-02-08_3_21-10-08_4_25-10-08 1.1.1 19.60267082294 -2.9231428407599718
zhc_2_06-12-12_3_16-03-12_4_31-03-12 1.1.1 6.376535974548 -3.4819099774507087
zhc_2_07-12-12_3_16-03-12_4_31-03-12 1.1.1 5.948411767371999 -3.445493803988116
zhc_2_09-08-01_3_16-01-01_4_31-01-01 1.1.1 6.426803184676 -3.8647811102287046
zhc_2_09-10-08_3_16-02-08_4_31-02-08 1.1.1 6.148156983566 -3.867321189158676
zjz-a_16-01-01_16-01-01_16-01-01_16-01-01_16-01-01_06-08-01_06-08-01_06-08-01_06-08-01_06-08-01_06-08-01_06-08-01_06-08-01 1.1.1 26.261606249855998 -2.7617288223449465
zjz-a_16-03-12_16-03-12_16-03-12_16-03-12_16-03-12_06-12-12_06-12-12_06-12-12_06-12-12_06-12-12_06-12-12_06-12-12_06-12-12 1.1.1 23.330566036479997 -2.877026027971993
zjz-a_16-03-12_16-03-12_16-03-12_16-03-12_16-03-12_07-12-12_07-12-12_07-12-12_07-12-12_07-12-12_07-12-12_07-12-12_07-12-12 1.1.1 21.674711791824 -2.790713045305006
zjz-a_19-10-08_19-10-08_19-10-08_19-10-08_19-10-08_02-02-08_02-02-08_02-02-08_02-02-08_02-02-08_02-02-08_02-02-08_02-02-08 1.1.1 19.56235009982 -2.841519891601333
zjz-a_23-12-12_23-12-12_23-12-12_23-12-12_23-12-12_02-03-12_02-03-12_02-03-12_02-03-12_02-03-12_02-03-12_02-03-12_02-03-12 1.1.1 17.464675345425004 -2.971015607606133
zjz-a_35-11-03_35-11-03_35-11-03_35-11-03_35-11-03_04-01-03_04-01-03_04-01-03_04-01-03_04-01-03_04-01-03_04-01-03_04-01-03 1.1.1 13.95196735176 -3.125779727539737
zjz-a_36-11-11_36-11-11_36-11-11_36-11-11_36-11-11_04-07-11_04-07-11_04-07-11_04-07-11_04-07-11_04-07-11_04-07-11_04-07-11 1.1.1 12.377071804610004 -2.85698050396894
zme_14-02-05_13-02-05_04-04-05_04-04-05_04-04-05 1.1.1 23.61685963923 -2.7681446463495143
zme_16-02-06_16-02-06_04-02-06_03-02-06_03-02-06 1.1.1 22.32147935204 -2.740671838271912
zme_16-02-06_16-02-06_04-02-06_04-02-06_03-02-06 1.1.1 20.65506812437 -2.9595213403856
zmj_21-08-01_21-08-01_25-08-01_25-08-01_02-01-01_02-01-01_02-01-01_02-01-01_02-01-01 1.1.1 7.720760890843 -3.3723256186346977
zni_28-01-01_06-08-01_07-08-01_06-08-01 1.1.1 2.782980157563 -4.664510637418243
zni_28-01-01_07-08-01_07-08-01_07-08-01 1.1.1 2.7456090428799995 -5.225649117151997
zni_28-01-01_08-08-01_08-08-01_08-08-01 1.1.1 3.101417981246 -4.600177434156502
zni_28-01-01_09-08-01_09-08-01_08-08-01 1.1.1 2.86062992544 -5.339891953506386
zni_28-01-01_09-08-01_09-08-01_09-08-01 1.1.1 2.1264722783620003 -6.414010426227452
zni_28-02-08_06-10-08_07-10-08_06-10-08 1.1.1 2.8773360773560004 -4.622521413685893
zni_28-02-08_07-10-08_07-10-08_07-10-08 1.1.1 2.831759236296 -4.958016508807202
zni_28-02-08_08-10-08_09-10-08_08-10-08 1.1.1 2.430614779944 -6.249243078560136
zni_28-02-08_09-10-08_08-10-08_09-10-08 1.1.1 2.77647156472 -5.383867124240797
zni_28-02-08_09-10-08_09-10-08_09-10-08 1.1.1 2.605851927601 -5.91122629359821
zni_28-03-09_02-05-09_02-05-09_02-05-09 1.1.1 4.126543993008 -4.045051278527729
zni_28-03-12_09-12-12_09-12-12_09-12-12 1.1.1 2.132166429924 -6.271764003294644
zni_29-01-01_07-08-01_07-08-01_07-08-01 1.1.1 2.973268742944001 -4.859658617600209
zni_29-01-01_08-08-01_08-08-01_08-08-01 1.1.1 3.370285770852001 -4.835059278528619
zni_29-01-01_09-08-01_08-08-01_09-08-01 1.1.1 2.771791308585 -5.072442851717935
zni_29-01-01_09-08-01_09-08-01_09-08-01 1.1.1 2.6938038219740004 -5.163631857159223
zni_29-01-01_10-08-01_10-08-01_10-08-01 1.1.1 4.464686928654 -4.415307164680045
zni_29-02-04_03-03-04_03-03-04_03-03-04 1.1.1 5.022538025505 -3.9870618188264095
zni_29-02-04_05-03-04_05-03-04_05-03-04 1.1.1 6.903263342060999 -3.6397622307876953
zni_29-02-08_06-10-08_06-10-08_06-10-08 1.1.1 3.2502670368090008 -4.359969392621201
zni_29-02-08_06-10-08_07-10-08_06-10-08 1.1.1 3.0489724154720004 -4.451007682517375
zni_29-02-08_06-10-08_07-10-08_07-10-08 1.1.1 3.025580895744 -4.6194799244913
zni_29-02-08_07-10-08_07-10-08_07-10-08 1.1.1 3.01414003341 -4.83303730883679
zni_29-02-08_08-10-08_08-10-08_08-10-08 1.1.1 3.440385940875 -4.515261238966242
zni_29-02-08_09-10-08_09-10-08_09-10-08 1.1.1 2.719537055795999 -5.498977651620991
zni_29-02-08_10-10-08_10-10-08_10-10-08 1.1.1 4.604317741131998 -3.648588390885189
zni_29-03-12_06-12-12_06-12-12_07-12-12 1.1.1 2.6298182262959995 -4.6591989890769465
zni_29-03-12_08-12-12_08-12-12_08-12-12 1.1.1 3.021821921943 -4.5630519010034485
zni_29-03-12_09-12-12_08-12-12_09-12-12 1.1.1 1.999486412235 -6.1264780974405
zni_29-03-12_09-12-12_09-12-12_08-12-12 1.1.1 2.1890076058620007 -5.999024659488887
zni_29-03-12_10-12-12_10-12-12_10-12-12 1.1.1 4.140014743378 -4.0975068856033285
zni_29-05-09_01-03-09_01-03-09_01-03-09 1.1.1 4.7911424031220005 -3.745899826012464
zni_29-05-09_02-03-09_02-03-09_02-03-09 1.1.1 3.9762169600530006 -3.9484098592257135
zni_29-05-09_05-03-09_05-03-09_05-03-09 1.1.1 9.18138470599 -3.302211456472911
zni_30-01-01_06-08-01_07-08-01_06-08-01 1.1.1 1.5080432616060002 -7.865243444410031
zni_30-01-01_07-08-01_07-08-01_06-08-01 1.1.1 1.3583987899350003 -7.222918066479091
zni_30-01-01_07-08-01_07-08-01_07-08-01 1.1.1 1.2870341847570002 -8.343991003947037
zni_30-01-01_08-08-01_08-08-01_08-08-01 1.1.1 1.5908996345130004 -7.521686358934042
zni_30-01-01_08-08-01_09-08-01_08-08-01 1.1.1 2.026741970384 -8.17254555328463
zni_30-01-01_10-08-01_10-08-01_10-08-01 1.1.1 2.6928729484509994 -4.731953565483785
zni_30-02-08_06-10-08_06-10-08_06-10-08 1.1.1 1.5428841857639997 -8.189898782706152
zni_30-02-08_07-10-08_06-10-08_06-10-08 1.1.1 1.4467585713809998 -8.282589744418086
zni_30-02-08_07-10-08_07-10-08_06-10-08 1.1.1 1.434994084944 -8.151958893884595
zni_30-02-08_07-10-08_07-10-08_07-10-08 1.1.1 1.3836972098499998 -8.796466477793421
zni_30-02-08_08-10-08_08-10-08_08-10-08 1.1.1 1.648827606872 -7.688739625398796
zni_30-02-08_08-10-08_08-10-08_09-10-08 1.1.1 1.53059054911 -9.398057992862835
zni_30-02-08_09-10-08_08-10-08_09-10-08 1.1.1 1.727548987794 -8.610782468617186
zni_30-02-08_09-10-08_09-10-08_09-10-08 1.1.1 1.7902555900860002 -9.20826374832884
zni_30-02-08_10-10-08_10-10-08_10-10-08 1.1.1 2.6708728052160007 -5.013607443116345
zni_30-03-09_05-05-09_05-05-09_05-05-09 1.1.1 6.061301039571 -3.458556005826865
zni_30-03-12_06-12-12_06-12-12_06-12-12 1.1.1 1.3972646962959998 -8.255240048884149
zni_30-03-12_06-12-12_06-12-12_07-12-12 1.1.1 1.353493795488 -9.69133013700418
zni_30-03-12_07-12-12_07-12-12_07-12-12 1.1.1 1.291912165471 -8.647809908456875
zni_30-03-12_08-12-12_08-12-12_09-12-12 1.1.1 2.043044311086 -7.894072768508058
zni_30-03-12_08-12-12_09-12-12_09-12-12 1.1.1 1.510580364944 -9.940219452975285
zni_30-03-12_09-12-12_08-12-12_08-12-12 1.1.1 1.737649021626 -8.286570285440925
zni_30-03-12_09-12-12_09-12-12_09-12-12 1.1.1 1.530782111313 -10.26363863729607
zra-d_28-02-06_28-02-06_28-02-06_28-02-06_28-02-06_04-02-06_04-02-06_04-02-06_04-02-06_04-02-06_04-02-06_04-02-06_04-02-06 1.1.1 10.211756574518 -3.5067510806507443
zra-d_28-03-12_28-03-12_28-03-12_28-03-12_28-03-12_06-12-12_06-12-12_06-12-12_06-12-12_06-12-12_06-12-12_06-12-12_06-12-12 1.1.1 4.234134049188 -3.6941613222517664
zra-d_28-03-12_28-03-12_28-03-12_28-03-12_28-03-12_09-12-12_09-12-12_09-12-12_09-12-12_09-12-12_09-12-12_09-12-12_09-12-12 1.1.1 4.016872172279999 -4.231356084730047
zra-d_29-01-01_29-01-01_29-01-01_29-01-01_29-01-01_09-08-01_09-08-01_09-08-01_09-08-01_09-08-01_09-08-01_09-08-01_09-08-01 1.1.1 4.606865805808001 -4.106202630170345
zra-d_29-02-06_29-02-06_29-02-06_29-02-06_29-02-06_02-02-06_02-02-06_02-02-06_02-02-06_02-02-06_02-02-06_02-02-06_02-02-06 1.1.1 7.532070019488 -3.319331508313636
zra-d_29-02-08_29-02-08_29-02-08_29-02-08_29-02-08_08-10-08_08-10-08_08-10-08_08-10-08_08-10-08_08-10-08_08-10-08_08-10-08 1.1.1 5.552277749930999 -4.045845095632201
zra-d_29-03-12_29-03-12_29-03-12_29-03-12_29-03-12_10-12-12_10-12-12_10-12-12_10-12-12_10-12-12_10-12-12_10-12-12_10-12-12 1.1.1 6.993701432729998 -3.533127889723796
zul_29-01-01_31-01-01_16-01-01_06-08-01_06-08-01_06-08-01_06-08-01_06-08-01_06-08-01 1.1.1 5.909974583955001 -3.2339558051054693
zul_29-01-01_31-01-01_16-01-01_07-08-01_07-08-01_07-08-01_07-08-01_07-08-01_07-08-01 1.1.1 5.429715760260001 -3.664614500444217
zul_29-01-01_31-01-01_16-01-01_08-08-01_08-08-01_08-08-01_08-08-01_08-08-01_08-08-01 1.1.1 6.295648933785002 -4.061395319514315
zul_29-01-01_31-01-01_16-01-01_09-08-01_09-08-01_09-08-01_09-08-01_09-08-01_09-08-01 1.1.1 5.223760622766 -3.809013542693899
zul_29-01-01_31-01-01_16-01-01_10-08-01_10-08-01_10-08-01_10-08-01_10-08-01_10-08-01 1.1.1 8.804225962224 -3.326013923392795
zul_29-02-06_31-02-06_16-02-06_01-02-06_01-02-06_01-02-06_01-02-06_01-02-06_01-02-06 1.1.1 10.040623311122 -3.079538006637961
zul_29-02-06_31-02-06_16-02-06_02-02-06_02-02-06_02-02-06_02-02-06_02-02-06_02-02-06 1.1.1 8.439235122776 -3.1813255081419887
zul_29-02-06_31-02-06_16-02-06_04-02-06_04-02-06_04-02-06_04-02-06_04-02-06_04-02-06 1.1.1 12.190828775856 -3.2451818599665065
zul_29-02-06_31-02-06_16-02-06_05-02-06_05-02-06_05-02-06_05-02-06_05-02-06_05-02-06 1.1.1 18.726628101604 -2.806689843121568
zul_29-02-06_31-02-06_16-02-06_None_None_None_None_None_None 1.1.1 4.777520496896 -3.8365320770137994
zul_29-02-08_31-02-08_16-02-08_06-10-08_06-10-08_06-10-08_06-10-08_06-10-08_06-10-08 1.1.1 5.783626464236001 -3.566374023485842
zul_29-02-08_31-02-08_16-02-08_07-10-08_07-10-08_07-10-08_07-10-08_07-10-08_07-10-08 1.1.1 5.4556805563260005 -3.7375927649448446
zul_29-02-08_31-02-08_16-02-08_08-10-08_08-10-08_08-10-08_08-10-08_08-10-08_08-10-08 1.1.1 6.190470738223 -3.74907994460284
zul_29-02-08_31-02-08_16-02-08_09-10-08_09-10-08_09-10-08_09-10-08_09-10-08_09-10-08 1.1.1 5.128004473774 -4.067896787015836
zul_29-02-08_31-02-08_16-02-08_10-10-08_10-10-08_10-10-08_10-10-08_10-10-08_10-10-08 1.1.1 8.542899755577 -3.501396333828413
zul_29-03-12_31-03-12_16-03-12_06-12-12_06-12-12_06-12-12_06-12-12_06-12-12_06-12-12 1.1.1 5.087726368417999 -3.6180498300926
zul_29-03-12_31-03-12_16-03-12_07-12-12_07-12-12_07-12-12_07-12-12_07-12-12_07-12-12 1.1.1 4.690303497208001 -3.729888591910492
zul_29-03-12_31-03-12_16-03-12_08-12-12_08-12-12_08-12-12_08-12-12_08-12-12_08-12-12 1.1.1 5.666722674788999 -3.64678655036911
zul_29-03-12_31-03-12_16-03-12_09-12-12_09-12-12_09-12-12_09-12-12_09-12-12_09-12-12 1.1.1 4.738281815480001 -3.7594722078231206
zul_29-03-12_31-03-12_16-03-12_10-12-12_10-12-12_10-12-12_10-12-12_10-12-12_10-12-12 1.1.1 7.713590576776 -3.325134236688024
zul_30-04-05_30-04-05_12-04-05_01-02-05_01-02-05_01-02-05_01-02-05_01-02-05_01-02-05 1.1.1 5.34639112996 -3.825632813883936
zul_30-04-05_30-04-05_12-04-05_03-02-05_03-02-05_03-02-05_03-02-05_03-02-05_03-02-05 1.1.1 7.8381865471399985 -3.1075102472397567
zxd_11-01-01_11-01-01_07-08-01_07-08-01_07-08-01 1.1.3 0.7275057750735934 -11.337911663240533
zxd_11-01-01_11-01-01_09-08-01_09-08-01_09-08-01 1.1.2 0.6509982355860001 -13.397185165661194
zxd_11-01-01_12-01-01_06-08-01_06-08-01_06-08-01 1.1.3 1.0411231733572903 -11.318317431569309
zxd_11-02-08_11-02-08_09-10-08_09-10-08_09-10-08 1.1.2 1.150732139603 -11.279220702100746
zxd_11-02-08_12-02-08_07-10-08_07-10-08_07-10-08 1.1.1 2.829810580912 -5.327973547328391
zxd_11-03-04_12-03-04_02-02-04_02-02-04_02-02-04 1.1.1 3.640291796237999 -3.915472667391856
zxd_11-03-09_12-03-09_01-05-09_01-05-09_01-05-09 1.1.1 7.086293238092 -3.2132903429843376
zxd_11-03-12_12-03-12_07-12-12_07-12-12_07-12-12 1.1.2 1.216828627209 -9.890971714193556
zxd_11-03-12_12-03-12_09-12-12_09-12-12_09-12-12 1.1.2 1.229955577647 -9.750799346938033
zxd_12-01-01_12-01-01_09-08-01_09-08-01_09-08-01 1.1.1 2.6353847378879998 -5.175468466173279
zxd_12-02-08_11-02-08_08-10-08_08-10-08_08-10-08 1.1.1 3.451268455078 -4.539166160001639
zxd_12-03-04_12-03-04_02-02-04_02-02-04_02-02-04 1.1.1 3.3264988380819998 -4.100217442272391
zxd_13-01-01_13-01-01_09-08-01_09-08-01_09-08-01 1.1.1 8.150616874827 -3.420637328781157
zxd_13-02-04_14-02-04_02-03-04_02-03-04_02-03-04 1.1.1 8.474952807168 -3.16683331759016
zxd_13-02-08_13-02-08_09-10-08_09-10-08_09-10-08 1.1.1 7.957214124597999 -3.45616383284658
zxd_13-03-04_13-03-04_03-02-04_03-02-04_03-02-04 1.1.1 12.942211911099998 -3.0701726428988474
zxd_13-05-09_14-05-09_03-03-09_03-03-09_03-03-09 1.1.1 15.657586625025004 -3.076264895400614
zxd_14-02-05_14-02-05_03-04-05_03-04-05_03-04-05 1.1.1 16.729533229959 -2.986126495748909
zxd_14-03-12_13-03-12_07-12-12_07-12-12_07-12-12 1.1.1 6.860664269294 -3.462663606954217
zxd_14-03-12_13-03-12_09-12-12_09-12-12_09-12-12 1.1.1 6.510742060768 -3.513444024799393
zxd_14-03-12_14-03-12_09-12-12_09-12-12_09-12-12 1.1.1 6.690812996740001 -3.734656286399024
zxd_14-04-05_14-04-05_01-02-05_01-02-05_01-02-05 1.1.1 13.636073324034005 -2.8734582442930137
zxd_14-05-09_13-05-09_05-03-09_05-03-09_05-03-09 1.1.1 28.44291819018001 -2.8734595009858857
zxd_15-03-09_15-03-09_02-05-09_02-05-09_02-05-09 1.1.1 17.531097558876002 -2.9614015261509548
zxd_16-01-01_16-01-01_07-08-01_07-08-01_07-08-01 1.1.1 6.384913380043998 -3.4478446793362747
zxd_16-02-06_16-02-06_03-02-06_04-02-06_03-02-06 1.1.1 15.944729784970002 -2.767207265614113
zxd_16-02-06_16-02-06_04-02-06_03-02-06_04-02-06 1.1.1 14.584611806859 -3.08424036775888
zxd_16-03-12_16-03-12_09-12-12_09-12-12_09-12-12 1.1.1 4.491538430064001 -4.053716576972895
zxd_16-05-09_16-05-09_05-03-09_05-03-09_05-03-09 1.1.1 21.961801849008 -3.0033220447596647
zxd_17-12-12_17-12-12_02-03-12_02-03-12_02-03-12 1.1.2 1.084984186286 -9.403067066301611
zxd_20-10-08_20-10-08_01-02-08_01-02-08_01-02-08 1.1.5 0.6729859009824001 -12.063800650034633
zxd_20-10-08_20-10-08_02-02-08_02-02-08_02-02-08 1.1.1 8.111376195417 -3.399294255848144
zxd_20-12-12_21-12-12_05-03-12_05-03-12_05-03-12 1.1.1 18.773702514186 -2.9350290691953647
zxd_21-10-08_21-10-08_01-02-08_01-02-08_01-02-08 1.1.1 7.578298486907999 -3.6045646855816735
zxd_21-12-12_20-12-12_02-03-12_02-03-12_02-03-12 1.1.1 5.895965731414999 -3.899749554744389
zxd_21-12-12_20-12-12_05-03-12_05-03-12_05-03-12 1.1.1 17.041154737853 -2.9402287653057155
zxd_22-08-01_22-08-01_02-01-01_02-01-01_02-01-01 1.1.1 8.117344218522 -3.3184926991830164
zxd_23-08-01_18-08-01_04-01-01_04-01-01_04-01-01 1.1.1 8.522858449296 -2.9883248232273543
zxd_23-08-01_23-08-01_02-01-01_02-01-01_02-01-01 1.1.2 2.082659619444 -5.98159878832252
zxd_23-08-01_23-08-01_04-01-01_04-01-01_04-01-01 1.1.2 2.634248516326 -5.854046471858356
zxd_23-10-08_23-10-08_04-02-08_04-02-08_04-02-08 1.1.2 2.518477896784 -6.176923512987423
zxd_23-12-12_23-12-12_04-03-12_04-03-12_04-03-12 1.1.1 8.291757299069001 -3.351080272665282
zxd_33-11-02_33-11-02_01-01-02_01-01-02_01-01-02 1.1.3 0.7759070073753404 -12.76504860006416
zxd_33-11-02_33-11-02_03-01-02_04-01-02_04-01-02 1.1.3 0.929774354034 -11.82987971205758
zxd_34-11-10_34-11-10_01-06-10_01-06-10_02-06-10 1.1.2 1.2453409285515002 -14.249021301535151
zxd_34-11-10_34-11-10_01-06-10_02-06-10_02-06-10 1.1.1 1.9082696203800005 -6.380188273821201
zxd_34-11-10_34-11-10_02-06-10_01-06-10_01-06-10 1.1.1 2.240339245563 -6.08410986232664
zxd_35-11-03_35-11-03_02-01-03_01-01-03_02-01-03 1.1.2 1.643886700404 -8.30997259305494
zxd_35-11-03_35-11-03_03-01-03_03-01-03_04-01-03 1.1.2 2.00508751688 -7.44823116065738
zxd_35-11-03_35-11-03_05-01-03_05-01-03_05-01-03 1.1.1 9.026961971374998 -3.012233220228954
zxd_36-11-11_36-11-11_04-07-11_04-07-11_03-07-11 1.1.1 3.28533309335 -4.670975179195414
zyg-a_11-02-04_11-02-04_11-02-04_11-02-04_05-03-04_05-03-04_05-03-04_05-03-04_05-03-04_05-03-04_05-03-04 1.1.1 36.296968911162 -2.6401557367176056
zyg-a_11-04-05_11-04-05_11-04-05_11-04-05_03-02-05_03-02-05_03-02-05_03-02-05_03-02-05_03-02-05_03-02-05 1.1.1 31.367006507536 -2.775845927991333
zyg-a_13-03-04_13-03-04_13-03-04_13-03-04_03-02-04_03-02-04_03-02-04_03-02-04_03-02-04_03-02-04_03-02-04 1.1.1 43.87103274996899 -2.6787343721625416
zyg-a_16-02-04_16-02-04_16-02-04_16-02-04_02-03-04_02-03-04_02-03-04_02-03-04_02-03-04_02-03-04_02-03-04 1.1.1 18.99323676432 -2.933450976780487
zyg-a_16-02-04_16-02-04_16-02-04_16-02-04_04-03-04_04-03-04_04-03-04_04-03-04_04-03-04_04-03-04_04-03-04 1.1.1 30.403023980074 -2.8510732356723825
zyg-a_16-02-06_16-02-06_16-02-06_16-02-06_03-02-06_03-02-06_03-02-06_03-02-06_03-02-06_03-02-06_03-02-06 1.1.1 50.71615518631799 -2.7127354645908666
zyg-a_16-02-08_16-02-08_16-02-08_16-02-08_08-10-08_08-10-08_08-10-08_08-10-08_08-10-08_08-10-08_08-10-08 1.1.1 19.508236627 -2.743896820007373
zyg-a_16-03-12_16-03-12_16-03-12_16-03-12_10-12-12_10-12-12_10-12-12_10-12-12_10-12-12_10-12-12_10-12-12 1.1.1 27.033136886756 -2.720159067558016
zyg-a_18-08-01_18-08-01_18-08-01_18-08-01_03-01-01_03-01-01_03-01-01_03-01-01_03-01-01_03-01-01_03-01-01 1.1.1 21.912949058352 -2.882392400468277
zyg-a_18-12-12_18-12-12_18-12-12_18-12-12_03-03-12_03-03-12_03-03-12_03-03-12_03-03-12_03-03-12_03-03-12 1.1.1 22.68971790217001 -2.945601496639621
zyg-a_20-08-01_20-08-01_20-08-01_20-08-01_01-01-01_01-01-01_01-01-01_01-01-01_01-01-01_01-01-01_01-01-01 1.1.1 27.088422798097994 -2.726659464420931
zyg-a_21-12-12_21-12-12_21-12-12_21-12-12_03-03-12_03-03-12_03-03-12_03-03-12_03-03-12_03-03-12_03-03-12 1.1.1 28.279564260976 -2.8328640492748174
zyg-a_23-12-12_23-12-12_23-12-12_23-12-12_02-03-12_02-03-12_02-03-12_02-03-12_02-03-12_02-03-12_02-03-12 1.1.1 11.680469945024996 -2.9201382833012155
zyg-a_32-02-04_32-02-04_32-02-04_32-02-04_02-03-04_02-03-04_02-03-04_02-03-04_02-03-04_02-03-04_02-03-04 1.1.1 13.44374132452 -3.0954878936660366
zyg-a_32-02-05_32-02-05_32-02-05_32-02-05_01-04-05_01-04-05_01-04-05_01-04-05_01-04-05_01-04-05_01-04-05 1.1.1 26.920799503870004 -2.8014621030263185
zyg-a_32-02-08_32-02-08_32-02-08_32-02-08_09-10-08_09-10-08_09-10-08_09-10-08_09-10-08_09-10-08_09-10-08 1.1.1 13.920263822239 -3.266913731187961
zyg-a_32-03-12_32-03-12_32-03-12_32-03-12_08-12-12_08-12-12_08-12-12_08-12-12_08-12-12_08-12-12_08-12-12 1.1.1 12.220722245322 -3.172197921324565
zyg_15-02-06_14-02-06_24-02-06_01-02-06_02-02-06 1.1.1 13.606194742131002 -3.0780250375977576
zyg_16-02-06_16-02-06_31-02-06_02-02-06_01-02-06 1.1.1 9.872737859964 -3.2626410545828497
zyg_16-03-04_16-03-04_31-03-04_02-02-04_02-02-04 1.1.1 6.016131707354999 -3.494430555700501
zyg_16-03-04_16-03-04_31-03-04_05-02-04_05-02-04 1.1.1 15.620547993518 -3.117177815988521
zyg_16-04-05_16-04-05_31-04-05_02-02-05_02-02-05 1.1.1 8.755407993996 -3.234313095514713
zyg_16-05-09_16-05-09_31-05-09_01-03-09_01-03-09 1.1.1 10.285370188216 -3.003528432408622
zyg_16-05-09_16-05-09_31-05-09_04-03-09_04-03-09 1.1.1 12.62753724578 -3.077309808770503
zyg_16-05-09_16-05-09_31-05-09_05-03-09_05-03-09 1.1.1 19.157891702949 -2.953577712953815
zyg_21-10-08_21-10-08_25-10-08_04-02-08_04-02-08 1.1.1 9.79246127074 -3.4188996607073188
zyg_21-12-12_21-12-12_25-12-12_04-03-12_04-03-12 1.1.1 9.357433315056 -3.396156784625755
zyl_16-01-01_16-01-01_29-01-01_06-08-01_06-08-01_06-08-01_06-08-01 1.1.1 6.253261646328 -3.645415348968376
zyl_16-01-01_16-01-01_29-01-01_08-08-01_08-08-01_08-08-01_08-08-01 1.1.1 6.922300795920002 -3.513806939190316
zyl_16-01-01_16-01-01_29-01-01_09-08-01_09-08-01_09-08-01_09-08-01 1.1.1 5.545498484910001 -3.5116950437220398
zyl_16-02-05_16-02-05_29-02-05_03-04-05_03-04-05_03-04-05_03-04-05 1.1.1 13.8247701228 -2.984875741738247
zyl_16-02-06_16-02-06_29-02-06_01-02-06_01-02-06_01-02-06_01-02-06 1.1.1 10.779352041558 -3.1479731629263648
zyl_16-02-08_16-02-08_29-02-08_06-10-08_06-10-08_06-10-08_06-10-08 1.1.1 6.248340333438002 -3.458251451213308
zyl_16-02-08_16-02-08_29-02-08_09-10-08_09-10-08_09-10-08_09-10-08 1.1.1 5.447439488513998 -3.5844017103477945
zyl_16-05-09_16-05-09_29-05-09_02-03-09_02-03-09_02-03-09_02-03-09 1.1.1 8.945857822047998 -3.187441986159324
