data_co2_des
_audit_aif_version 63df4e8
_exptl_method GCMC
_exptl_adsorptive co2
_exptl_temperature 298
_adsorp_pressure 10000
_simltn_code RASPA 2.0.41
_simltn_date 2023-06-23T22:46:09.394349824
_simltn_forcefield_adsorptive uff
_simltn_forcefield_adsorbent mm3
_units_temperature K
_units_pressure Pa
_units_loading mol/kg
_units_enthalpy kJ/mol

loop_
_adsnt_material_id
_simltn_size
_adsorp_amount_absolute
_adsorp_enthalpy
abr_30-03-12_30-03-12_30-03-12_06-12-12_06-12-12_06-12-12 1.1.1 0.1197974063419999 -13.955039448941497
abr_30-03-12_30-03-12_30-03-12_06-12-12_06-12-12_07-12-12 1.1.1 0.116851886514 -13.84157741345096
acs-f_11-03-12_07-12-12_07-12-12_07-12-12 2.2.1 0.2509303929 -24.999634517909143
acs-f_17-12-12_04-03-12_04-03-12_04-03-12 2.2.1 0.1934917042155 -19.81010203082821
acs-f_23-12-12_01-03-12_01-03-12_01-03-12 2.2.1 0.1055308973399999 -13.10733603696466
acs-f_34-11-10_03-06-10_03-06-10_03-06-10 2.2.1 0.087049225376 -11.873695972333737
acs-f_34-11-10_04-06-10_04-06-10_03-06-10 2.2.1 0.111696516855 -16.22492575846689
acs-g_11-03-12_06-12-12_06-12-12_06-12-12 1.1.7 0.2505386811375344 -23.396922619990207
afi_30-03-12_06-12-12_06-12-12_06-12-12_06-12-12 1.1.1 0.092927952625 -12.623038105705822
afw_30-03-12_06-12-12_06-12-12 2.1.1 0.106061769965 -14.2415179941285
aht_30-03-12_30-03-12_06-12-12_06-12-12_06-12-12_06-12-12_06-12-12_06-12-12 1.1.1 0.101105612456 -14.896960026707598
ana-b_30-03-09_30-05-09_None_None_None_None 1.1.1 0.12716112882 -15.731629215652822
ana-b_30-03-12_30-03-12_06-12-12_06-12-12_06-12-12_06-12-12 1.1.1 0.1007339007809999 -12.009729183971292
ana-b_30-05-09_30-03-09_None_None_None_None 1.1.1 0.139491904948 -15.28338244606779
ana_30-03-12_06-12-12 1.1.1 0.0996187653479999 -13.221599622835344
apd_30-03-12_30-03-12_06-12-12_06-12-12_06-12-12_06-12-12_06-12-12_06-12-12_06-12-12 1.1.1 0.10036218888 -13.338779376723329
asn_11-02-04_11-02-04_11-02-04_11-02-04_30-03-04_30-03-04_None_None_None_None_None_None_None_None 2.2.2 0.080782325415 -12.456376327399806
asn_11-02-05_11-02-05_11-02-05_11-02-05_30-04-05_30-04-05_None_None_None_None_None_None_None_None 1.1.1 0.144709811215 -13.680277070597676
asn_11-03-09_11-03-09_11-03-09_11-03-09_30-05-09_30-05-09_None_None_None_None_None_None_None_None 1.1.1 0.108146856048 -14.791668273199472
asn_11-04-05_11-04-05_11-04-05_11-04-05_30-02-05_30-02-05_None_None_None_None_None_None_None_None 1.1.1 0.128450281865 -15.079289131203886
asn_11-05-09_11-05-09_11-05-09_11-05-09_30-03-09_30-03-09_None_None_None_None_None_None_None_None 1.1.1 0.121255565872 -15.404470724607304
asn_12-02-05_12-02-05_12-02-05_12-02-05_30-04-05_30-04-05_None_None_None_None_None_None_None_None 1.1.1 0.127200519864 -14.198673889190747
asn_12-04-05_12-04-05_12-04-05_12-04-05_30-02-05_30-02-05_None_None_None_None_None_None_None_None 1.1.1 0.066491180838 -14.012366360257484
asn_17-08-01_17-08-01_17-08-01_17-08-01_30-01-01_30-01-01_None_None_None_None_None_None_None_None 2.2.2 0.1173262147875 -15.742317979202944
asn_17-10-08_17-10-08_17-10-08_17-10-08_30-02-08_30-02-08_None_None_None_None_None_None_None_None 2.2.2 0.15269347205875 -16.158878629191232
asn_17-12-12_17-12-12_17-12-12_17-12-12_28-03-12_28-03-12_None_None_None_None_None_None_None_None 1.1.1 0.1239313495579999 -13.653967958614851
asn_17-12-12_17-12-12_17-12-12_17-12-12_29-03-12_29-03-12_None_None_None_None_None_None_None_None 1.1.1 0.1211201784889999 -13.134113566532076
asn_17-12-12_17-12-12_17-12-12_17-12-12_30-03-12_30-03-12_None_None_None_None_None_None_None_None 2.2.2 1.5235842253059997 -30.102506515576817
asn_18-12-12_18-12-12_18-12-12_18-12-12_30-03-12_30-03-12_None_None_None_None_None_None_None_None 1.1.1 0.1234776615449999 -14.488080806742296
asn_23-12-12_23-12-12_23-12-12_23-12-12_30-03-12_30-03-12_None_None_None_None_None_None_None_None 1.1.1 0.108742457705 -14.157757040685354
asn_33-11-02_33-11-02_33-11-02_33-11-02_28-01-02_28-01-02_None_None_None_None_None_None_None_None 1.1.2 0.0875358116049999 -12.288037910429988
asn_34-11-10_34-11-10_34-11-10_34-11-10_28-06-10_28-06-10_None_None_None_None_None_None_None_None 1.1.2 0.0862142488425 -11.85324141020856
asn_34-11-10_34-11-10_34-11-10_34-11-10_29-06-10_29-06-10_None_None_None_None_None_None_None_None 1.1.2 0.091629855504 -12.524274719171144
asn_35-11-03_35-11-03_35-11-03_35-11-03_30-01-03_30-01-03_None_None_None_None_None_None_None_None 2.2.2 0.13122533424 -19.62204618420796
atn_30-03-12_06-12-12_06-12-12_06-12-12 1.1.2 0.113186246348 -13.595760703096705
ato_30-03-12_06-12-12_06-12-12_06-12-12_06-12-12 1.1.2 0.094662607677 -12.926130791822455
atv_30-03-12_30-03-12_06-12-12_06-12-12_06-12-12_06-12-12_06-12-12_06-12-12 1.1.1 0.093671376246 -12.552996157571942
baa_30-02-06_30-02-06_None_None 1.2.2 0.0606871095774999 -12.479497970402818
bac_30-03-12_30-03-12_06-12-12_06-12-12_06-12-12_06-12-12 1.1.1 0.110026695945 -13.411377689579108
baf_30-03-12_30-03-12_06-12-12_06-12-12_06-12-12_06-12-12_06-12-12 1.1.2 0.099247053448 -13.148018688372655
bay_30-03-12_30-03-12_06-12-12_06-12-12_06-12-12_06-12-12 1.1.1 0.1037075951759999 -13.091018462453563
bba_30-03-12_30-03-12_06-12-12_06-12-12_06-12-12 1.1.2 0.099618765214 -12.89089554250059
bbb_30-03-12_30-03-12_06-12-12_06-12-12_06-12-12_06-12-12 1.1.1 0.1020968439849999 -13.141604705186936
bbc_30-03-12_30-03-12_06-12-12_06-12-12_06-12-12_06-12-12 1.1.1 0.090697681762 -12.922345897239625
bbg_30-03-12_30-03-12_06-12-12_06-12-12_06-12-12 2.2.1 0.098875341593 -13.333042806527065
bbg_30-03-12_30-03-12_06-12-12_06-12-12_07-12-12 2.2.1 0.0979839707414999 -13.339112740317926
bbg_30-03-12_30-03-12_06-12-12_07-12-12_06-12-12 2.2.1 0.08774683947 -14.324371292995988
bbg_30-03-12_30-03-12_07-12-12_06-12-12_06-12-12 2.2.1 0.09965863725675 -13.46289877671636
bbg_30-03-12_30-03-12_07-12-12_06-12-12_07-12-12 2.2.1 0.098123929761 -13.786605722263896
bbg_30-03-12_30-03-12_07-12-12_07-12-12_06-12-12 2.2.1 0.091948297818 -13.832514414203455
bbg_30-03-12_30-03-12_07-12-12_07-12-12_07-12-12 2.2.1 0.0858233790577499 -14.339473947899144
bbg_30-03-12_30-03-12_08-12-12_08-12-12_08-12-12 2.2.1 0.0999487817155 -13.27496124264052
bbg_30-03-12_30-03-12_09-12-12_09-12-12_08-12-12 2.2.1 0.1142333639947499 -15.678099086674834
bbg_30-03-12_30-03-12_09-12-12_09-12-12_09-12-12 2.2.1 0.1161470717999999 -15.586240604256428
bbh_30-03-12_30-03-12_06-12-12_06-12-12_06-12-12 1.1.2 0.104822730561 -15.131607115592518
bbh_30-03-12_30-03-12_06-12-12_06-12-12_07-12-12 1.1.2 0.0979839707079999 -14.146529346637148
bbh_30-03-12_30-03-12_06-12-12_07-12-12_06-12-12 1.1.2 0.112608443948 -13.87284540020394
bbh_30-03-12_30-03-12_06-12-12_07-12-12_07-12-12 1.1.2 0.0999990538365 -14.070441614271356
bbh_30-03-12_30-03-12_07-12-12_06-12-12_06-12-12 1.1.2 0.0982648101269999 -13.712131434294486
bbh_30-03-12_30-03-12_07-12-12_06-12-12_07-12-12 1.1.2 0.083027940567 -14.592508450304264
bbh_30-03-12_30-03-12_07-12-12_07-12-12_07-12-12 1.1.2 0.104069294329 -13.791345165752034
bbi_30-03-12_30-03-12_06-12-12_06-12-12_06-12-12_06-12-12 1.1.1 0.117460932118 -14.054231334024877
bbi_30-03-12_30-03-12_07-12-12_07-12-12_07-12-12_07-12-12 1.1.1 0.12163943493 -15.736310253967584
bbj_30-03-12_30-03-12_06-12-12_06-12-12_06-12-12_06-12-12 1.1.1 0.12638201557 -14.860362162455464
bbl_30-02-06_30-02-06_None_None_None_None_None 1.2.3 0.0658891739321349 -11.588259651598376
bbl_30-03-12_30-03-12_06-12-12_06-12-12_06-12-12_06-12-12_06-12-12 1.2.2 0.1037075951295 -13.125907854676248
bbl_30-03-12_30-03-12_07-12-12_07-12-12_07-12-12_07-12-12_07-12-12 1.2.2 0.09427056207075 -14.597166716424365
bbm_30-03-12_30-03-12_06-12-12_06-12-12_06-12-12_06-12-12 1.1.1 0.123408321086 -13.924518107926362
bbm_30-03-12_30-03-12_07-12-12_07-12-12_07-12-12_07-12-12 1.1.1 0.110827040714 -16.266818000403156
bcm_30-03-12_30-03-12_06-12-12_06-12-12_06-12-12 2.2.1 0.1025924596979999 -13.35478473981965
bcm_30-03-12_30-03-12_06-12-12_06-12-12_07-12-12 2.2.1 0.090671734119 -13.17139702741367
bcm_30-03-12_30-03-12_06-12-12_07-12-12_06-12-12 2.2.1 0.09140295778125 -13.827365403859735
bcm_30-03-12_30-03-12_06-12-12_07-12-12_07-12-12 2.2.1 0.109351483332 -13.255578785448431
bcm_30-03-12_30-03-12_07-12-12_06-12-12_06-12-12 2.2.1 0.094780242426 -13.549822927854056
bcm_30-03-12_30-03-12_07-12-12_06-12-12_07-12-12 2.2.1 0.104985743031 -13.689654714430274
bcm_30-03-12_30-03-12_07-12-12_07-12-12_06-12-12 2.2.1 0.0933206604719999 -14.57723309639494
bcm_30-03-12_30-03-12_07-12-12_07-12-12_07-12-12 2.2.1 0.1283971812675 -15.1622528133642
bcm_30-03-12_30-03-12_08-12-12_08-12-12_08-12-12 2.2.1 0.0947967826579999 -12.960418939476437
bcm_30-03-12_30-03-12_09-12-12_08-12-12_08-12-12 2.2.1 0.1047792105484999 -15.900838531284098
bcm_30-03-12_30-03-12_09-12-12_09-12-12_08-12-12 2.2.1 0.12678648091725 -15.84684988841654
bcm_30-03-12_30-03-12_09-12-12_09-12-12_09-12-12 2.2.1 0.10687143759375 -14.316443446228922
bcn_30-03-12_30-03-12_06-12-12_06-12-12_06-12-12_06-12-12 2.2.1 0.1100266959079999 -14.189317021676294
bcn_30-03-12_30-03-12_07-12-12_07-12-12_07-12-12_07-12-12 2.2.1 0.1162332377789999 -14.181708119896278
bco_30-02-06_30-02-06_None_None_None_None_None 2.2.2 0.0771593250342499 -12.581896048518434
bco_30-03-12_30-03-12_06-12-12_06-12-12_06-12-12_06-12-12_06-12-12 2.1.2 0.0988753415929999 -12.737492720696206
bco_30-03-12_30-03-12_07-12-12_07-12-12_07-12-12_07-12-12_07-12-12 2.1.2 0.0952842239932499 -14.332076277428616
bcp_30-03-12_30-03-12_06-12-12_06-12-12_06-12-12_06-12-12 1.2.1 0.180651939903 -20.909651427817927
bcp_30-03-12_30-03-12_07-12-12_07-12-12_07-12-12_07-12-12 1.2.1 0.154076617578 -19.60991879878673
bcq_30-03-12_30-03-12_06-12-12_06-12-12_06-12-12_06-12-12 1.1.2 0.101105612456 -14.043427812908764
bcu-f_33-11-02_01-01-02_01-01-02_02-01-02 2.2.2 0.121987681515 -17.854431825437757
bcu-f_33-11-02_01-01-02_02-01-02_01-01-02 2.2.2 0.08064741166825 -13.491200437787375
bcu-f_33-11-02_01-01-02_02-01-02_02-01-02 2.2.2 0.0767951562115 -13.7458133599727
bcu-f_33-11-02_02-01-02_01-01-02_01-01-02 2.2.2 0.120971117502375 -16.798208943100416
bcu-f_33-11-02_02-01-02_01-01-02_02-01-02 2.2.2 0.1313138548959999 -17.550634249355802
bcu-f_35-11-03_01-01-03_01-01-03_02-01-03 2.2.1 0.1336338029519999 -18.360150996411
bcu-f_35-11-03_01-01-03_02-01-03_02-01-03 1.3.1 0.2045759576898934 -23.14342406087564
bcu-g_11-03-12_06-12-12_06-12-12_06-12-12 2.1.1 0.195564427148 -20.385182686968424
bcu-g_11-05-09_03-03-09_03-03-09_03-03-09 2.2.1 0.114151179582 -16.412374290599033
bcu-h_17-12-12_02-03-12_02-03-12_02-03-12 1.1.1 0.1214719539319999 -13.160356218684257
bcx_30-03-12_30-03-12_06-12-12_06-12-12_06-12-12_06-12-12 1.1.1 0.163924908504 -15.847818150620682
bcx_30-03-12_30-03-12_07-12-12_07-12-12_07-12-12_07-12-12 1.1.1 0.1109959844009999 -16.348652019901138
bcx_30-03-12_30-03-12_08-12-12_08-12-12_08-12-12_08-12-12 1.1.1 0.114374378984 -15.192220020187351
bcz_30-03-12_30-03-12_08-12-12_08-12-12_08-12-12_08-12-12 1.1.1 0.13910397462 -16.76584258666185
bew_31-02-08_31-02-08_06-10-08_06-10-08_07-10-08 3.2.3 0.1725889978604841 -17.704568895919433
bex_25-12-12_20-12-12_02-03-12_02-03-12 1.2.5 0.1649394825884 -21.4979415192584
bik_30-03-12_30-03-12_06-12-12_06-12-12_06-12-12_06-12-12 1.1.2 0.0973884943509999 -12.642020899690564
bil_11-02-05_11-02-05_11-02-05_11-02-05_02-04-05_02-04-05_02-04-05_02-04-05_02-04-05_02-04-05 1.1.4 0.132640160596 -21.21586959342961
bil_12-03-12_12-03-12_12-03-12_12-03-12_06-12-12_06-12-12_06-12-12_06-12-12_06-12-12_06-12-12 1.1.3 0.147239646294 -20.190319233003567
bil_19-12-12_19-12-12_19-12-12_19-12-12_02-03-12_02-03-12_02-03-12_02-03-12_02-03-12_02-03-12 1.1.4 0.13184440488825 -21.462209378525355
bil_23-12-12_23-12-12_23-12-12_23-12-12_04-03-12_04-03-12_04-03-12_04-03-12_04-03-12_04-03-12 1.1.3 0.1538612437970374 -15.636862187451598
bil_35-11-03_35-11-03_35-11-03_35-11-03_01-01-03_01-01-03_01-01-03_01-01-03_01-01-03_01-01-03 1.1.3 0.1992635875000795 -20.6575522031436
bil_35-11-03_35-11-03_35-11-03_35-11-03_02-01-03_02-01-03_02-01-03_02-01-03_02-01-03_02-01-03 1.1.3 0.1746717772386782 -18.866795534203263
bmn_11-03-12_06-12-12_06-12-12 1.1.1 0.216592860312 -20.09908501970731
bmn_11-03-12_07-12-12_06-12-12 1.1.1 0.158087894468 -16.82329578051662
bmn_12-03-12_06-12-12_06-12-12 1.1.1 0.250401182181 -19.965864458641978
bmn_12-03-12_06-12-12_07-12-12 1.1.1 0.2063725127239999 -19.535820559264568
bmn_12-03-12_07-12-12_06-12-12 1.1.1 0.182601438471 -21.012700336180824
bmn_12-03-12_07-12-12_07-12-12 1.1.1 0.181618763784 -18.442515093795645
bmn_12-03-12_08-12-12_08-12-12 1.1.1 0.238569098308 -20.55141519699548
bmn_14-03-12_06-12-12_06-12-12 2.1.1 0.1414250449109999 -19.27094618620028
bmn_17-12-12_01-03-12_02-03-12 1.1.1 0.1937447550539999 -19.28742882701675
bnl_30-03-12_30-03-12_06-12-12_06-12-12_06-12-12_06-12-12_06-12-12 1.1.1 0.113743814064 -14.256056004726972
bnl_30-03-12_30-03-12_07-12-12_07-12-12_07-12-12_07-12-12_07-12-12 1.1.1 0.096804716989 -15.470320799271647
bod_11-03-12_12-03-12_07-12-12_07-12-12 2.1.3 0.246957773663909 -24.01741116018753
bod_15-02-05_15-02-05_05-04-05_05-04-05 1.1.1 0.7382745784459999 -2.8609510054584595
bod_15-02-06_15-02-06_05-02-06_05-02-06 1.1.1 0.771791727971 -2.9680803354442524
bod_15-03-09_15-03-09_05-05-09_05-05-09 1.1.1 0.764056749865 -3.347915219947243
bod_15-04-05_15-04-05_05-02-05_05-02-05 1.1.1 0.741798562114 -2.993262053337433
bod_15-05-09_15-05-09_05-03-09_05-03-09 1.1.1 0.740207579638 -3.108170458989184
boe_12-03-12_12-03-12_06-12-12_06-12-12 1.1.1 0.126044639952 -13.402504046403289
boe_12-03-12_12-03-12_06-12-12_07-12-12 1.1.1 0.129720456288 -15.979038731116782
boe_12-03-12_12-03-12_07-12-12_06-12-12 1.1.1 0.1502088605759999 -16.113435198314207
boe_12-03-12_12-03-12_07-12-12_07-12-12 1.1.1 0.1028030738499999 -16.34508117236827
boe_17-12-12_17-12-12_01-03-12_01-03-12 1.1.1 0.128694010164 -15.09779192398396
boe_17-12-12_17-12-12_01-03-12_02-03-12 1.1.1 0.0973804526749999 -11.601502027825145
boe_17-12-12_17-12-12_02-03-12_01-03-12 1.1.1 0.1244384130599999 -13.415982947809471
boe_17-12-12_17-12-12_02-03-12_02-03-12 1.1.1 0.1031272098479999 -13.126921497978172
boe_33-11-02_33-11-02_02-01-02_01-01-02 2.2.2 0.07980063411825 -12.273084918915815
boe_34-11-10_34-11-10_01-06-10_02-06-10 2.2.2 0.0551964815782499 -10.5235774373927
boe_34-11-10_34-11-10_02-06-10_01-06-10 2.2.2 0.0760110537225 -10.583743530813935
boe_34-11-10_34-11-10_02-06-10_02-06-10 2.2.2 0.0691346528957499 -12.446919495508997
bor_11-03-04_30-02-04_None 2.2.2 0.154220803065 -16.34069064149846
bor_11-04-05_30-02-05_None 2.2.2 0.169099105266 -15.616457547716887
bor_11-05-09_30-03-09_None 2.2.2 0.1278099207644999 -14.741783822411884
bor_12-03-04_30-02-04_None 2.2.2 0.1442399863274999 -16.105540547140077
bor_17-12-12_29-03-12_None 2.2.2 0.130527570993 -13.431685142733889
bor_18-12-12_30-03-12_None 2.2.2 0.1111298953904999 -13.67584725567782
bor_33-11-02_29-01-02_None 2.2.2 0.138348464412 -16.161678344301528
bor_34-11-10_28-06-10_None 2.2.2 0.137744604489875 -16.632362122878238
bor_34-11-10_29-06-10_None 2.2.2 0.1584432918297499 -16.570674860725784
bpa_17-12-12_17-12-12_02-03-12_02-03-12_02-03-12_02-03-12 2.1.1 0.1084571017249999 -13.064002577568258
bpc_17-12-12_17-12-12_02-03-12_02-03-12_02-03-12_02-03-12 2.1.1 0.1010200433209999 -14.375771811708011
bpc_35-11-03_35-11-03_02-01-03_02-01-03_02-01-03_02-01-03 5.1.3 0.1419123731157565 -18.47838906796211
bpe_11-03-12_11-03-12_07-12-12_07-12-12_07-12-12_07-12-12_07-12-12 1.2.1 0.1090691764785 -11.931778210152038
bpe_11-03-12_12-03-12_06-12-12_06-12-12_06-12-12_06-12-12_06-12-12 1.2.1 0.1122742184455 -13.328173584005963
bpe_11-03-12_12-03-12_09-12-12_09-12-12_09-12-12_09-12-12_09-12-12 1.2.1 0.136322857125 -15.908869974083352
bpe_12-03-12_12-03-12_09-12-12_09-12-12_09-12-12_09-12-12_09-12-12 1.2.1 0.14474581041 -15.211176040967574
bpe_17-12-12_17-12-12_01-03-12_01-03-12_01-03-12_01-03-12_01-03-12 1.2.1 0.134056260545 -11.45117902809609
bpe_35-11-03_35-11-03_01-01-03_01-01-03_01-01-03_01-01-03_01-01-03 1.4.1 0.163128288702 -17.288255217893525
bpf_12-03-12_12-03-12_06-12-12_06-12-12_06-12-12_06-12-12_06-12-12 2.1.1 0.122387094618 -14.349176706833664
bpf_17-12-12_17-12-12_02-03-12_02-03-12_02-03-12_02-03-12_02-03-12 2.1.1 0.101639798147 -14.903739504285324
bpf_23-10-08_23-10-08_01-02-08_01-02-08_01-02-08_01-02-08_01-02-08 5.1.3 0.0929771573883821 -12.785086473050496
bpf_35-11-03_35-11-03_01-01-03_01-01-03_01-01-03_01-01-03_01-01-03 5.1.3 0.217227281578835 -18.33370926876592
bpg_17-12-12_17-12-12_02-03-12_02-03-12_02-03-12_02-03-12_02-03-12 1.1.1 0.1214719539319999 -12.860160981117648
bpg_23-10-08_18-10-08_02-02-08_02-02-08_02-02-08_02-02-08_02-02-08 3.4.1 0.1439130755058839 -18.443020414751505
bpi_17-12-12_17-12-12_02-03-12_02-03-12_02-03-12_02-03-12 1.1.1 0.1115558760599999 -12.180440792776926
bpi_34-11-10_34-11-10_01-06-10_02-06-10_02-06-10_02-06-10 2.1.1 0.062024085648 -9.926928403741156
bpi_35-11-03_35-11-03_01-01-03_01-01-03_01-01-03_01-01-03 1.1.3 0.1821772465388912 -17.981755762549373
bpi_35-11-03_35-11-03_02-01-03_02-01-03_02-01-03_02-01-03 1.1.3 0.1544519495598868 -16.84904164510334
bpi_35-11-03_35-11-03_04-01-03_04-01-03_04-01-03_04-01-03 1.1.3 0.1022482882468552 -15.222434302312363
bpj_35-11-03_35-11-03_02-01-03_01-01-03_02-01-03 1.3.2 0.1925116489300565 -20.939654338088875
bpk_12-03-12_12-03-12_06-12-12_06-12-12_06-12-12_06-12-12_06-12-12 1.1.1 0.116056727655 -12.595517162263032
bpk_17-12-12_17-12-12_02-03-12_02-03-12_02-03-12_02-03-12_02-03-12 1.1.1 0.1127953857939999 -11.919032954733206
bpk_34-11-10_34-11-10_02-06-10_02-06-10_02-06-10_02-06-10_02-06-10 1.1.2 0.0655946255159999 -12.670605649857109
bpl_17-12-12_17-12-12_02-03-12_02-03-12_02-03-12_02-03-12_02-03-12 1.1.1 0.1103163663259999 -13.477770868106264
bpm_12-03-12_12-03-12_06-12-12_06-12-12_06-12-12_06-12-12_06-12-12 1.3.3 0.4832961423048056 -24.63050814464972
bpm_17-12-12_17-12-12_02-03-12_02-03-12_02-03-12_02-03-12_02-03-12 1.1.1 0.1177534247299999 -13.514662895897384
bpm_23-10-08_23-10-08_02-02-08_02-02-08_02-02-08_02-02-08_02-02-08 1.3.3 0.1753533941209044 -20.04183561004084
bpo_17-12-12_17-12-12_02-03-12_02-03-12_02-03-12_02-03-12_02-03-12 1.1.1 0.1004002884539999 -14.283054213177303
bpp_12-03-12_12-03-12_06-12-12_06-12-12_06-12-12 2.1.1 0.116056727655 -12.870220761851126
bpp_17-12-12_17-12-12_02-03-12_02-03-12_02-03-12 2.1.1 0.1137250180944999 -13.719445897369791
bpp_34-11-10_34-11-10_02-06-10_02-06-10_02-06-10 2.2.1 0.060648998989 -11.609544174122483
bpr_11-03-12_23-12-12_None_None 1.1.1 0.1210681198199999 -12.920407998082798
bpr_11-04-05_11-02-05_None_None 1.1.1 0.1792357007999999 -14.28816198446108
bpr_11-05-09_12-03-09_None_None 1.1.1 0.119235488472 -12.488565741766983
bpr_12-03-12_12-03-12_06-12-12_06-12-12 1.1.1 0.124731675152 -12.836030491785772
bpr_12-03-12_19-12-12_None_None 1.1.1 0.1185313063619999 -15.384510246023744
bpr_17-10-08_17-10-08_02-02-08_02-02-08 1.1.1 0.1507214051839999 -19.56626926696668
bpr_17-12-12_17-12-12_01-03-12_02-03-12 1.1.1 0.118560222996 -12.673789485051824
bpr_17-12-12_17-12-12_02-03-12_01-03-12 1.1.1 0.099661713984 -12.51670093656335
bpr_19-12-12_12-03-12_None_None 1.1.1 0.1092347333139999 -13.643889892172153
bpr_21-12-12_12-03-12_None_None 1.1.1 0.125375995525 -14.028410189925276
bpr_23-12-12_11-03-12_None_None 1.1.1 0.133956016446 -13.66073294098944
bpr_34-11-10_34-11-10_02-06-10_02-06-10 1.1.1 0.073229978821 -13.422273696321362
bps_23-10-08_23-10-08_02-02-08_02-02-08_02-02-08_02-02-08 1.3.1 0.1355320871574266 -15.83789438944357
bpt_17-12-12_17-12-12_02-03-12_02-03-12_02-03-12_02-03-12 2.1.1 0.1123822158599999 -13.821018442936394
bpu_11-03-12_12-03-12_06-12-12_06-12-12_06-12-12_06-12-12 1.1.1 0.165063003781 -17.093726080738975
bpu_12-03-12_11-03-12_06-12-12_06-12-12_06-12-12_06-12-12 1.1.1 0.130033083378 -14.157521484169006
bpu_12-03-12_12-03-12_06-12-12_06-12-12_06-12-12_06-12-12 1.1.1 0.180376381978 -17.538216016975223
bpu_12-03-12_12-03-12_07-12-12_07-12-12_07-12-12_07-12-12 1.1.1 0.1522056621019999 -16.165561447490106
bpv_15-03-09_15-03-09_05-05-09_05-05-09_05-05-09_05-05-09 1.1.1 0.5936529557499999 -3.323097196609552
bto-z_12-03-12_06-12-12_06-12-12 2.2.1 0.1228560107002499 -13.911971531047325
bto-z_12-03-12_06-12-12_07-12-12 2.2.1 0.1227325515524999 -13.95616418063911
bto-z_17-12-12_01-03-12_02-03-12 2.2.1 0.1060294679399999 -13.586037493377024
bto-z_17-12-12_02-03-12_01-03-12 2.2.1 0.0996617140959999 -13.856963001673956
bto-z_17-12-12_02-03-12_02-03-12 2.2.1 0.1181665946174999 -13.453683589281264
bto-z_34-11-10_02-06-10_02-06-10 3.3.1 0.061699207090648 -10.361826686310922
bto_12-03-12_06-12-12_06-12-12 2.2.1 0.10972636070175 -13.807566697876036
bto_12-03-12_06-12-12_07-12-12 2.2.1 0.0972769112305 -11.274580667919476
bto_12-03-12_07-12-12_06-12-12 2.2.1 0.14202334107325 -14.71025385246355
bto_17-12-12_01-03-12_02-03-12 2.2.1 0.0992821381619999 -13.684235915783042
bto_17-12-12_02-03-12_01-03-12 2.2.1 0.1094499181589999 -12.697541134855584
bto_17-12-12_02-03-12_02-03-12 2.2.1 0.1032924778124999 -12.56528049344467
bto_34-11-10_02-06-10_02-06-10 3.3.1 0.0641671753742739 -12.258367697155649
byl_30-03-12_30-03-12_06-12-12_06-12-12_06-12-12_06-12-12_06-12-12_06-12-12 1.1.1 0.0966450707299999 -12.760304367488624
cag-b_30-02-05_30-04-05_None_None_None_None 2.1.2 0.151485972726 -15.897794066647773
cag-b_30-03-09_30-05-09_None_None_None_None 2.1.2 0.1670434828589999 -16.29781811866352
cag-b_30-03-12_30-03-12_06-12-12_06-12-12_06-12-12_06-12-12 1.1.1 0.0869805636959999 -12.841655116282228
cag-b_30-04-05_30-02-05_None_None_None_None 2.1.2 0.1520597832287499 -15.446629756003851
cag-b_30-05-09_30-03-09_None_None_None_None 2.1.2 0.149125323798 -15.835335520684334
cag_30-03-12_06-12-12_06-12-12_06-12-12_06-12-12 1.1.1 0.1003621888799999 -11.92792124566581
cal-d_30-03-12_30-03-12_30-03-12_30-03-12_06-12-12_06-12-12_06-12-12_06-12-12_06-12-12_06-12-12_06-12-12 1.1.1 0.101805305116 -13.675281562305198
cas_30-03-12_30-03-12_30-03-12_06-12-12_06-12-12_06-12-12_06-12-12_06-12-12_06-12-12 2.1.1 0.0910693935725 -12.804048999704548
cbn_30-03-12_30-03-12_30-03-12_30-03-12_06-12-12_06-12-12_06-12-12_06-12-12_06-12-12_06-12-12_06-12-12_06-12-12 1.2.1 0.1053802983239999 -12.079044503787005
cbo_30-03-12_06-12-12_06-12-12 1.1.1 0.1152306612549999 -13.41040255538296
cbo_30-03-12_06-12-12_07-12-12 1.1.1 0.1069060092159999 -13.732911770552809
cbo_30-03-12_07-12-12_06-12-12 1.1.1 0.1146938641919999 -13.311737425859974
cbo_30-03-12_07-12-12_07-12-12 1.1.1 0.1216394348399999 -15.852983509232194
cda_28-03-12_30-03-12_06-12-12_08-12-12 1.1.2 0.0952040841955 -13.127583988454017
cda_30-03-09_30-03-09_02-05-09_02-05-09 1.1.2 0.1360175416799999 -19.64312518963344
cda_30-03-12_30-03-12_06-12-12_06-12-12 1.1.2 0.118204355739 -15.193743362427462
cda_30-03-12_30-03-12_06-12-12_07-12-12 1.1.2 0.1035961421039999 -14.844857731426156
cda_30-03-12_30-03-12_07-12-12_06-12-12 1.1.2 0.1303228332889999 -15.55401640372631
cda_30-03-12_30-03-12_07-12-12_07-12-12 1.1.2 0.1398853501695 -17.477206917687855
cda_30-03-12_30-03-12_08-12-12_08-12-12 1.1.2 0.114374379021 -12.9841740512276
cda_30-03-12_30-03-12_09-12-12_08-12-12 1.1.2 0.133039163601 -18.54886649852425
cda_30-03-12_30-03-12_09-12-12_09-12-12 1.1.2 0.1262292828155 -16.18502419869061
cdl-a_15-02-05_15-02-05_15-02-05_05-04-05_05-04-05_05-04-05_05-04-05_05-04-05 1.1.1 0.63872203968 -3.459779704430372
cdl-a_15-02-06_15-02-06_15-02-06_05-02-06_05-02-06_05-02-06_05-02-06_05-02-06 1.1.1 0.6922208285720001 -3.005331638256622
cdl-a_15-03-09_15-03-09_15-03-09_05-05-09_05-05-09_05-05-09_05-05-09_05-05-09 1.1.1 0.6779347455000001 -2.856358330187489
cdl-a_15-04-05_15-04-05_15-04-05_05-02-05_05-02-05_05-02-05_05-02-05_05-02-05 1.1.1 0.6893793048960001 -3.4910099988097074
cdl-a_15-05-09_15-05-09_15-05-09_05-03-09_05-03-09_05-03-09_05-03-09_05-03-09 1.1.1 0.6668934630000001 -2.904745385409848
cdp_30-03-12_30-03-12_06-12-12_06-12-12_06-12-12 1.1.1 0.0743423621 -11.62163594156047
cdp_30-03-12_30-03-12_06-12-12_07-12-12_07-12-12 1.1.1 0.107912648025 -12.693990858453446
cds-a_11-03-12_11-03-12_08-12-12_08-12-12_08-12-12 5.4.1 0.2195290351056 -18.744350501356323
cds-a_15-02-05_15-02-05_05-04-05_05-04-05_05-04-05 1.1.1 0.7213154075349999 -3.3282597833916774
cds-a_15-02-06_15-02-06_05-02-06_05-02-06_05-02-06 1.1.1 0.7094688558620001 -3.035043087877157
cds-a_15-03-09_15-03-09_05-05-09_05-05-09_05-05-09 1.1.1 0.6967049263809999 -3.2488137187231327
cds-a_15-04-05_15-04-05_05-02-05_05-02-05_05-02-05 1.1.1 0.6343170606720001 -3.324599393781193
cds-a_15-05-09_15-05-09_05-03-09_05-03-09_05-03-09 1.1.1 0.6746223613610001 -2.99293587299414
cds-a_35-11-03_35-11-03_02-01-03_01-01-03_02-01-03 4.4.1 0.1679702662104999 -18.51178847768905
cee-a_15-02-05_15-02-05_15-02-05_15-02-05_03-04-05_03-04-05_03-04-05_03-04-05_03-04-05_03-04-05_03-04-05 1.1.1 0.68089629699 -3.3344800596206263
cee-a_15-02-05_15-02-05_15-02-05_15-02-05_04-04-05_04-04-05_04-04-05_04-04-05_04-04-05_04-04-05_04-04-05 1.1.1 0.609833963785 -2.9209301633251474
cee-a_15-02-06_15-02-06_15-02-06_15-02-06_03-02-06_03-02-06_03-02-06_03-02-06_03-02-06_03-02-06_03-02-06 1.1.1 0.7602003024639999 -2.8532643120671444
cee-a_15-02-06_15-02-06_15-02-06_15-02-06_04-02-06_04-02-06_04-02-06_04-02-06_04-02-06_04-02-06_04-02-06 1.1.1 0.685540194636 -3.047314901186235
cee-a_15-03-09_15-03-09_15-03-09_15-03-09_01-05-09_01-05-09_01-05-09_01-05-09_01-05-09_01-05-09_01-05-09 1.1.1 0.5912200378020002 -3.2459134028876746
cee-a_15-03-09_15-03-09_15-03-09_15-03-09_03-05-09_03-05-09_03-05-09_03-05-09_03-05-09_03-05-09_03-05-09 1.1.1 0.744701484694 -3.298462766979041
cee-a_15-03-09_15-03-09_15-03-09_15-03-09_04-05-09_04-05-09_04-05-09_04-05-09_04-05-09_04-05-09_04-05-09 1.1.1 0.6792038516479999 -3.39060888346576
cee-a_15-04-05_15-04-05_15-04-05_15-04-05_01-02-05_01-02-05_01-02-05_01-02-05_01-02-05_01-02-05_01-02-05 1.1.1 0.572042544249 -3.1567467985211115
cee-a_15-04-05_15-04-05_15-04-05_15-04-05_03-02-05_03-02-05_03-02-05_03-02-05_03-02-05_03-02-05_03-02-05 1.1.1 0.7454022619680001 -3.330132340700898
cee-a_15-04-05_15-04-05_15-04-05_15-04-05_04-02-05_04-02-05_04-02-05_04-02-05_04-02-05_04-02-05_04-02-05 1.1.1 0.654670085544 -3.67977210305876
cee-a_15-05-09_15-05-09_15-05-09_15-05-09_01-03-09_01-03-09_01-03-09_01-03-09_01-03-09_01-03-09_01-03-09 1.1.1 0.598396005894 -3.3530612886971074
cee-a_15-05-09_15-05-09_15-05-09_15-05-09_03-03-09_03-03-09_03-03-09_03-03-09_03-03-09_03-03-09_03-03-09 1.1.1 0.729971878511 -3.0303698204293648
cee-a_15-05-09_15-05-09_15-05-09_15-05-09_04-03-09_04-03-09_04-03-09_04-03-09_04-03-09_04-03-09_04-03-09 1.1.1 0.6631596661760001 -3.803810074943265
cee-a_16-04-05_16-04-05_16-04-05_16-04-05_05-02-05_05-02-05_05-02-05_05-02-05_05-02-05_05-02-05_05-02-05 1.1.1 0.57943520525 -3.5624654186245444
cee-a_16-05-09_16-05-09_16-05-09_16-05-09_05-03-09_05-03-09_05-03-09_05-03-09_05-03-09_05-03-09_05-03-09 1.1.1 0.616468703856 -4.126708207661064
cef-a_16-05-09_16-05-09_16-05-09_28-05-09_05-03-09_05-03-09_05-03-09_05-03-09_05-03-09_05-03-09_05-03-09_05-03-09 1.1.1 0.5632785791999999 -3.367320419358305
cem-a_23-12-12_23-12-12_23-12-12_01-03-12_01-03-12_01-03-12_01-03-12_01-03-12_01-03-12 1.1.3 0.1633181654167957 -16.65941264870415
cem-a_23-12-12_23-12-12_23-12-12_04-03-12_04-03-12_04-03-12_04-03-12_04-03-12_04-03-12 1.1.3 0.1673893149609346 -17.96949571002159
cem-a_35-11-03_35-11-03_35-11-03_01-01-03_01-01-03_01-01-03_01-01-03_01-01-03_01-01-03 1.2.3 0.1647214848098593 -16.84953873256798
cez-a_17-12-12_17-12-12_17-12-12_17-12-12_01-03-12_01-03-12_01-03-12_01-03-12_01-03-12_01-03-12_01-03-12 1.1.1 0.3042113313119999 -22.20965089630765
cfc_30-03-12_30-03-12_06-12-12_06-12-12_06-12-12 2.2.1 0.0992470534035 -12.887269648319965
cfc_30-03-12_30-03-12_06-12-12_07-12-12_06-12-12 2.2.1 0.10216998170375 -13.717738196088977
cfc_30-03-12_30-03-12_07-12-12_06-12-12_07-12-12 2.2.1 0.0924722585825 -14.343347473010674
cfc_30-03-12_30-03-12_07-12-12_07-12-12_06-12-12 2.2.1 0.1066337565279999 -12.82524424461459
cfc_30-03-12_30-03-12_07-12-12_07-12-12_07-12-12 2.2.1 0.099338871835 -14.974609364428767
cfd_30-03-12_30-03-12_30-03-12_06-12-12_06-12-12_06-12-12_06-12-12 2.2.1 0.1007339006455 -13.018692561872804
cfd_30-03-12_30-03-12_30-03-12_07-12-12_07-12-12_07-12-12_07-12-12 2.2.1 0.0925811254745 -14.089986506717196
cfe_30-03-12_30-03-12_30-03-12_06-12-12_06-12-12_06-12-12_06-12-12 2.2.1 0.0941669920249999 -13.000082502654475
cfe_30-03-12_30-03-12_30-03-12_07-12-12_07-12-12_07-12-12_07-12-12 2.2.1 0.1004651628864999 -14.13407503251488
clh_11-02-08_11-02-08_06-10-08_06-10-08_06-10-08 9.9.1 0.0594037796381886 -16.206680478082504
clh_11-03-12_11-03-12_06-12-12_06-12-12_06-12-12 3.3.1 0.1079454445459073 -12.763193930139437
clh_12-02-08_11-02-08_06-10-08_06-10-08_06-10-08 9.9.1 0.1306133148207958 -21.817166912609625
clh_12-03-12_11-03-12_06-12-12_06-12-12_06-12-12 7.7.1 0.1379035822483097 -19.89987888298516
clh_17-12-12_17-12-12_01-03-12_01-03-12_01-03-12 2.2.1 0.1096107071862499 -12.96230402433227
clh_35-11-03_35-11-03_02-01-03_01-01-03_01-01-03 5.5.1 0.14839183880048 -16.059153554778188
cnw_30-03-12_30-03-12_30-03-12_30-03-12_06-12-12_06-12-12_06-12-12_06-12-12_06-12-12_06-12-12_06-12-12 1.2.1 0.099804621164 -12.87881064669454
cnw_30-03-12_30-03-12_30-03-12_30-03-12_07-12-12_07-12-12_07-12-12_07-12-12_07-12-12_07-12-12_07-12-12 1.2.1 0.0917364071085 -14.080110951188963
coe_30-03-12_30-03-12_06-12-12_06-12-12_06-12-12_06-12-12_06-12-12 2.1.2 0.1090044884779999 -13.538815579351626
coe_30-03-12_30-03-12_09-12-12_09-12-12_09-12-12_09-12-12_09-12-12 2.1.1 0.1784551361749999 -20.206235599969357
cpa_30-04-05_11-04-05_01-02-05_01-02-05 1.1.3 0.5904690025691078 -27.9266525854146
cpa_30-04-05_11-04-05_04-02-05_04-02-05 1.1.3 0.2287205124684156 -19.14834373224236
cpj_31-01-01_31-01-01_06-08-01_06-08-01_07-08-01 2.1.3 0.1216637300501556 -17.5528023814595
cpj_31-03-12_31-03-12_06-12-12_06-12-12_06-12-12 3.1.3 0.3165355361936554 -22.71017097289908
cpq_11-03-09_11-03-09_02-05-09_02-05-09_02-05-09_02-05-09 1.1.5 0.12986734911 -20.18762536227756
cpq_11-03-12_11-03-12_06-12-12_06-12-12_06-12-12_06-12-12 1.2.4 0.4360771299596249 -25.494018096855303
cpq_11-03-12_12-03-12_06-12-12_06-12-12_06-12-12_06-12-12 2.1.3 0.6852003184705857 -28.312686408898088
cpq_11-05-09_11-05-09_01-03-09_01-03-09_01-03-09_01-03-09 1.1.5 0.412022978584 -27.633413974424617
cpq_12-03-12_11-03-12_06-12-12_06-12-12_06-12-12_06-12-12 1.1.3 0.1692787974736571 -21.99374079294198
cpq_12-03-12_12-03-12_06-12-12_06-12-12_06-12-12_06-12-12 1.1.3 0.2025717615366428 -22.410263024000933
cpq_18-12-12_23-12-12_01-03-12_01-03-12_01-03-12_01-03-12 4.3.5 0.444354324043608 -24.54487981527831
cpq_18-12-12_23-12-12_02-03-12_02-03-12_02-03-12_02-03-12 1.2.3 0.1887217866879526 -21.22973558948901
cpq_18-12-12_23-12-12_04-03-12_04-03-12_04-03-12_04-03-12 1.2.4 0.2659835947365001 -21.87516791733431
cpq_23-12-12_18-12-12_01-03-12_01-03-12_01-03-12_01-03-12 1.2.5 0.4646847839472 -23.42144724812268
cpq_23-12-12_18-12-12_02-03-12_02-03-12_02-03-12_02-03-12 1.2.4 0.408903640435125 -24.62698670028985
cpq_23-12-12_18-12-12_03-03-12_03-03-12_03-03-12_03-03-12 1.1.3 0.1438122588753989 -17.116436949844104
cpq_23-12-12_23-12-12_01-03-12_01-03-12_01-03-12_01-03-12 1.1.3 0.1669086279280094 -15.931529328019378
cpq_23-12-12_23-12-12_03-03-12_03-03-12_03-03-12_03-03-12 1.1.3 0.1193401156769997 -15.321265176858168
cpq_23-12-12_23-12-12_04-03-12_04-03-12_04-03-12_04-03-12 1.1.3 0.1775674457385035 -18.474190939482877
cpq_35-11-03_35-11-03_01-01-03_01-01-03_01-01-03_01-01-03 2.1.2 0.120527907576 -15.292731437853565
cpq_35-11-03_35-11-03_03-01-03_03-01-03_03-01-03_03-01-03 1.1.3 0.1479590290536826 -16.81540795684699
cps_30-04-05_11-04-05_01-02-05_01-02-05_01-02-05_01-02-05 1.1.3 0.2716941550792905 -23.81477739627085
cqb_25-12-12_25-12-12_02-03-12_02-03-12_02-03-12_02-03-12_02-03-12 1.1.3 0.1783737255197743 -22.086564395799503
cqb_31-03-12_31-03-12_06-12-12_06-12-12_06-12-12_06-12-12_06-12-12 2.1.4 0.7017768904964999 -27.900940572009315
cqc_31-02-05_31-02-05_01-04-05_01-04-05_01-04-05_01-04-05_01-04-05 1.1.3 0.087079686721064 -16.971845551357877
cqc_31-05-09_31-05-09_01-03-09_01-03-09_01-03-09_01-03-09_01-03-09 1.1.3 0.1310263410786913 -16.83094269141699
cqd_31-03-12_31-03-12_10-12-12_10-12-12_10-12-12_10-12-12_10-12-12_10-12-12 2.1.3 0.2394866899790297 -22.316382527393746
cqj_11-03-12_11-03-12_11-03-12_06-12-12_06-12-12_06-12-12 2.2.4 0.561538018613875 -25.30077728980354
cqj_17-12-12_17-12-12_17-12-12_02-03-12_02-03-12_02-03-12 1.1.4 0.32351204050875 -26.71137210054257
cqj_18-12-12_18-12-12_18-12-12_02-03-12_02-03-12_02-03-12 1.1.4 0.3117322926959999 -25.58955686181727
cqj_23-12-12_23-12-12_23-12-12_01-03-12_01-03-12_01-03-12 1.1.3 0.193012337215634 -17.777686208330977
cqj_35-11-03_35-11-03_35-11-03_01-01-03_01-01-03_01-01-03 1.1.2 0.2144565528419999 -21.362928606254727
cqj_35-11-03_35-11-03_35-11-03_01-01-03_01-01-03_02-01-03 1.1.3 0.3986365688032987 -24.792010357967023
cqj_35-11-03_35-11-03_35-11-03_01-01-03_02-01-03_02-01-03 2.2.3 0.1794218883469839 -19.57400337127928
cqj_35-11-03_35-11-03_35-11-03_02-01-03_01-01-03_01-01-03 1.1.3 0.4652010417375321 -29.29604294658354
cqj_35-11-03_35-11-03_35-11-03_02-01-03_01-01-03_02-01-03 1.1.3 0.3597556136151565 -24.83233851816371
cqn_11-04-05_11-04-05_30-04-05_11-04-05_01-02-05_01-02-05_01-02-05_01-02-05_01-02-05 1.1.3 0.4975818516964307 -27.250332174929436
cqn_11-04-05_11-04-05_30-04-05_11-04-05_02-02-05_02-02-05_02-02-05_02-02-05_02-02-05 1.1.3 0.4730043625899233 -25.063789186818397
cqn_11-04-05_11-04-05_30-04-05_11-04-05_03-02-05_03-02-05_03-02-05_03-02-05_03-02-05 1.1.3 0.2306718940587895 -21.104078836666076
cqu_11-04-05_11-04-05_11-04-05_30-04-05_01-02-05_01-02-05_01-02-05_01-02-05_01-02-05_01-02-05 1.1.3 0.3124063329702411 -23.45679951483529
cqu_11-04-05_11-04-05_11-04-05_30-04-05_02-02-05_02-02-05_02-02-05_02-02-05_02-02-05_02-02-05 1.1.3 0.3122389301935303 -24.61240510857437
cqz_30-04-05_12-04-05_30-04-05_01-02-05_01-02-05_01-02-05_01-02-05_01-02-05 1.1.3 0.3579875584086459 -24.81905590852097
crb-b3_30-03-12_30-03-12_30-03-12_06-12-12_06-12-12_06-12-12_06-12-12 1.1.1 0.1014773243119999 -12.03663752245293
crb-b_30-02-05_30-04-05_None_None 2.2.2 0.1543550252397499 -15.638635663124166
crb-b_30-03-09_30-05-09_None_None 2.2.2 0.1404552468329999 -15.912404625635537
crb-b_30-03-12_30-03-12_06-12-12_06-12-12 1.1.2 0.0947865116775 -10.982975184506175
crb-b_30-04-05_30-02-05_None_None 2.2.2 0.1537812147369999 -15.467173650622424
crb-b_30-05-09_30-03-09_None_None 2.2.2 0.145657293012 -14.637684570370718
crb_30-03-12_06-12-12_06-12-12 1.1.2 0.107053001424 -12.889830529933722
cru_30-04-05_11-04-05_01-02-05_01-02-05_01-02-05_01-02-05 1.1.3 0.4866992017249816 -27.970724239243378
crx_11-04-05_30-04-05_11-04-05_01-02-05_01-02-05_01-02-05 1.1.3 0.1072794469048037 -16.915628571126593
cry_11-03-12_11-03-12_11-03-12_06-12-12_06-12-12_06-12-12 2.2.4 0.7294237711906253 -29.685466167763924
cry_12-03-12_12-03-12_12-03-12_06-12-12_06-12-12_06-12-12 1.1.3 0.1714893274628299 -22.06070501517746
cry_17-12-12_17-12-12_17-12-12_02-03-12_02-03-12_02-03-12 1.1.3 0.6990834752461745 -27.311660362806983
cry_17-12-12_17-12-12_17-12-12_03-03-12_03-03-12_03-03-12 2.4.5 0.31260237616965 -21.55349529655441
cry_23-12-12_23-12-12_23-12-12_01-03-12_01-03-12_01-03-12 1.1.3 0.201288454367082 -17.888008686282227
cry_23-12-12_23-12-12_23-12-12_04-03-12_04-03-12_04-03-12 1.1.3 0.1518868128959397 -17.1380672627565
cry_35-11-03_35-11-03_35-11-03_01-01-03_01-01-03_02-01-03 1.1.3 0.2417465216327338 -21.32820823597772
cry_35-11-03_35-11-03_35-11-03_01-01-03_02-01-03_01-01-03 1.1.3 0.2232750154237784 -20.949360573535674
cry_35-11-03_35-11-03_35-11-03_03-01-03_03-01-03_03-01-03 1.1.3 0.1291176324813595 -15.441640250565584
ctn_11-02-04_30-03-04_None 2.2.2 0.0933280653468749 -12.47312459996581
ctn_11-02-05_30-04-05_None 1.1.1 0.167473152305 -13.65159575479084
ctn_11-03-09_30-05-09_None 1.1.1 0.095038146224 -14.013340341168444
ctn_11-05-09_30-03-09_None 1.1.1 0.134364275696 -14.65456390923361
ctn_12-02-04_30-03-04_None 2.2.2 0.10663456130775 -12.893846047660372
ctn_12-02-05_30-04-05_None 1.1.1 0.11563683624 -12.044131075756894
ctn_12-03-09_30-05-09_None 1.1.1 0.1091578512 -12.333602742092529
ctn_12-04-05_30-02-05_None 1.1.1 0.05781841812 -12.263661483617147
ctn_17-08-01_30-01-01_None 2.2.2 0.1089830172915 -13.84667061205753
ctn_17-10-08_30-02-08_None 2.2.2 0.15637283283125 -15.973045307801106
ctn_17-12-12_28-03-12_None 1.1.1 0.125134566544 -14.504716825487694
ctn_17-12-12_30-03-12_None 2.2.2 0.7320826300454999 -22.386531091772348
ctn_23-12-12_30-03-12_None 1.1.1 0.10537928891 -14.062537810466344
ctn_33-11-02_28-01-02_None 2.2.2 0.0737661333749999 -11.674350327175867
ctn_33-11-02_29-01-02_None 1.1.1 0.081492931092 -12.359278955306303
ctn_35-11-03_29-01-03_None 1.1.1 0.1060856984059999 -12.880267908631374
ctn_35-11-03_30-01-03_None 2.2.2 0.255069243429 -22.140633107220392
ctn_36-11-11_29-07-11_None 1.1.1 0.086054194845 -10.999008345351958
cus_30-03-12_30-03-12_06-12-12_06-12-12_06-12-12_06-12-12 2.1.1 0.1131862463479999 -13.485933731472269
dea_30-03-12_11-03-12_11-03-12_06-12-12_06-12-12_06-12-12_06-12-12_06-12-12 1.1.1 0.118251557312 -11.773710359058263
dea_30-03-12_12-03-12_12-03-12_06-12-12_06-12-12_06-12-12_06-12-12_06-12-12 1.1.1 0.11904399432 -13.09374781128028
dhc_31-03-12_31-03-12_31-03-12_31-03-12_31-03-12_06-12-12_06-12-12_06-12-12_06-12-12_06-12-12_06-12-12 1.1.3 0.2468942065936138 -22.89953294636548
dhf_19-12-12_19-12-12_19-12-12_19-12-12_02-03-12_02-03-12_02-03-12_02-03-12_02-03-12_02-03-12_02-03-12 1.1.4 0.23239458343775 -23.261528278673268
dhf_23-12-12_23-12-12_23-12-12_23-12-12_01-03-12_01-03-12_01-03-12_01-03-12_01-03-12_01-03-12_01-03-12 1.1.3 0.2325318574185159 -19.19456164786581
dhh_11-03-12_11-03-12_11-03-12_11-03-12_06-12-12_06-12-12_06-12-12_06-12-12_06-12-12_06-12-12 1.1.4 0.572761944927 -27.093971984854665
dhh_17-12-12_17-12-12_17-12-12_17-12-12_01-03-12_01-03-12_01-03-12_01-03-12_01-03-12_01-03-12 4.2.4 0.1911615991042499 -21.299097431320863
dhh_17-12-12_17-12-12_17-12-12_17-12-12_02-03-12_02-03-12_02-03-12_02-03-12_02-03-12_02-03-12 1.1.3 0.7056941831978054 -28.17878167920926
dhh_23-12-12_23-12-12_23-12-12_23-12-12_02-03-12_02-03-12_02-03-12_02-03-12_02-03-12_02-03-12 1.1.3 0.1567601610651114 -20.050157654865057
dhh_35-11-03_35-11-03_35-11-03_35-11-03_01-01-03_01-01-03_01-01-03_01-01-03_01-01-03_01-01-03 1.1.3 0.1944148121203182 -18.93938486584257
dhh_35-11-03_35-11-03_35-11-03_35-11-03_02-01-03_02-01-03_02-01-03_02-01-03_02-01-03_02-01-03 1.2.3 0.1673655037123029 -18.96973241844219
dia-b3++_30-02-06_30-02-06_30-02-06_None_None 2.2.3 0.0849612598497 -11.518834798379014
dia-b3++_30-03-12_30-03-12_30-03-12_06-12-12_06-12-12 2.2.1 0.0836351573812499 -11.292953482913935
dia-b3++_30-03-12_30-03-12_30-03-12_06-12-12_07-12-12 2.2.1 0.099826141103 -12.201753963953063
dia-b3++_30-03-12_30-03-12_30-03-12_07-12-12_06-12-12 2.2.1 0.078586536613 -15.138733994953029
dia-b3+_30-02-06_30-02-06_30-02-06_None_None 2.2.3 0.0728243754474324 -12.204644217211513
dia-b3+_30-03-12_30-03-12_30-03-12_06-12-12_06-12-12 1.1.1 0.093671376246 -13.751444028195356
dia-b3+_30-03-12_30-03-12_30-03-12_06-12-12_07-12-12 1.1.1 0.105800387145 -14.064616989659603
dia-b3+_30-03-12_30-03-12_30-03-12_07-12-12_06-12-12 1.1.1 0.104439256752 -12.772888760204934
dia-b3+_30-03-12_30-03-12_30-03-12_07-12-12_07-12-12 1.1.1 0.0689290131099999 -13.51406970171193
dia-b3_30-02-06_30-02-06_30-02-06_None_None 2.2.2 0.0737998600468749 -12.338313725025252
dia-b3_30-03-12_30-03-12_30-03-12_06-12-12_06-12-12 1.1.1 0.080289751104 -13.034283492281382
dia-b4+_30-02-06_30-02-06_30-02-06_30-02-06_None_None_None 2.2.3 0.0897302263125 -12.125201140865506
dia-b4+_30-03-12_30-03-12_30-03-12_30-03-12_06-12-12_06-12-12_06-12-12 1.1.1 0.124895168328 -12.011821028179291
dia-b4+_30-03-12_30-03-12_30-03-12_30-03-12_06-12-12_07-12-12_06-12-12 1.1.1 0.1131425281479999 -14.07593752470257
dia-b4+_30-03-12_30-03-12_30-03-12_30-03-12_07-12-12_06-12-12_06-12-12 1.1.1 0.100087621054 -12.94096331374599
dia-b4+_30-03-12_30-03-12_30-03-12_30-03-12_07-12-12_06-12-12_07-12-12 1.1.1 0.11617297412 -13.793720619751394
dia-b4+_30-03-12_30-03-12_30-03-12_30-03-12_07-12-12_07-12-12_07-12-12 1.1.1 0.103393519665 -12.898097052888849
dia-b4_30-02-06_30-02-06_30-02-06_30-02-06_None_None_None 2.2.2 0.080627159875 -11.270966986501668
dia-b4_30-03-12_30-03-12_30-03-12_30-03-12_06-12-12_06-12-12_06-12-12 1.1.1 0.0981319180159999 -11.437267284540036
dia-b4_30-03-12_30-03-12_30-03-12_30-03-12_06-12-12_06-12-12_07-12-12 1.1.1 0.0989997121749999 -13.07431697666621
dia-b4_30-03-12_30-03-12_30-03-12_30-03-12_06-12-12_07-12-12_07-12-12 1.1.1 0.087082378368 -13.417354380697423
dia-b4_30-03-12_30-03-12_30-03-12_30-03-12_07-12-12_06-12-12_07-12-12 1.1.1 0.115135715478 -12.464333185812771
dia-b4_30-03-12_30-03-12_30-03-12_30-03-12_07-12-12_07-12-12_06-12-12 1.1.1 0.09853957631 -12.32791393044908
dia-b4_30-03-12_30-03-12_30-03-12_30-03-12_07-12-12_07-12-12_07-12-12 1.1.1 0.103393519614 -14.71964916444572
dia-b5_30-03-12_30-03-12_30-03-12_30-03-12_30-03-12_06-12-12_06-12-12_06-12-12_06-12-12 1.1.1 0.0992470534479999 -13.00298623775926
dia-b_30-02-05_30-04-05_None 2.2.2 0.1239430685939999 -15.345243015822495
dia-b_30-02-06_30-02-06_None 2.2.3 0.07802649182009 -12.00169836252573
dia-b_30-03-09_30-05-09_None 2.2.2 0.1103989800209999 -14.528055288992126
dia-b_30-03-12_30-03-12_06-12-12 1.1.1 0.08921083452 -12.571331416054068
dia-b_30-04-05_30-02-05_None 2.2.2 0.1365668996544999 -16.114804716666907
dia-b_30-05-09_30-03-09_None 2.2.2 0.1196470621169999 -13.778790370555235
dia-f_11-03-12_06-12-12_06-12-12 1.1.7 0.2570725622083505 -23.71480516115805
dia-f_35-11-03_01-01-03_02-01-03 1.1.5 0.2169847344627999 -21.012132758352763
dia-f_35-11-03_02-01-03_01-01-03 1.1.5 0.3073577467896 -24.531175016833792
dia-g_13-03-09_05-05-09_05-05-09_05-05-09 1.1.1 0.5748546014250001 -3.597514852864692
dia-g_14-03-09_05-05-09_05-05-09_05-05-09 1.1.1 0.5579649295999999 -3.574386018475108
dia-g_14-05-09_05-03-09_05-03-09_05-03-09 1.1.1 0.5973576063999999 -3.5595081628712166
dia-g_15-02-04_05-03-04_05-03-04_05-03-04 1.1.1 0.639286201281 -3.2352904486224667
dia-g_15-02-05_03-04-05_03-04-05_03-04-05 1.1.1 0.5782499007149999 -2.949121430493277
dia-g_15-02-05_05-04-05_05-04-05_05-04-05 1.1.1 0.7174610497440002 -2.6494684145610243
dia-g_15-02-06_04-02-06_03-02-06_03-02-06 1.1.1 0.6084620027749998 -2.795994439796896
dia-g_15-02-06_04-02-06_03-02-06_04-02-06 1.1.1 0.60048691065 -2.932084824448951
dia-g_15-02-06_05-02-06_05-02-06_05-02-06 1.1.1 0.651975431562 -2.980001018859758
dia-g_15-03-09_03-05-09_03-05-09_03-05-09 1.1.1 0.5996319902680001 -2.985117967783753
dia-g_15-03-09_05-05-09_05-05-09_05-05-09 1.1.1 0.8661886121250001 -3.208360245801984
dia-g_15-04-05_03-02-05_03-02-05_03-02-05 1.1.1 0.58976882304 -3.237222007888088
dia-g_15-04-05_05-02-05_05-02-05_05-02-05 1.1.1 0.7725232945440001 -2.7785530847342463
dia-g_15-05-09_03-03-09_03-03-09_03-03-09 1.1.1 0.614275959182 -3.5622734057421708
dia-g_15-05-09_05-03-09_05-03-09_05-03-09 1.1.1 0.8015971095000001 -3.494376216209229
dia_30-02-06_None 2.3.2 0.0658886711024175 -11.742664802543262
dia_30-03-12_06-12-12 1.1.1 0.091441105383 -11.883955177865564
dma_11-02-08_11-02-08_06-10-08_06-10-08_06-10-08_06-10-08_06-10-08 9.1.1 0.0751689409371567 -18.098252595973246
dma_11-03-12_11-03-12_06-12-12_06-12-12_06-12-12_06-12-12_06-12-12 3.1.1 0.1009363839000514 -12.36665237322064
dma_12-03-12_11-03-12_06-12-12_06-12-12_06-12-12_06-12-12_06-12-12 7.1.1 0.1395726462721259 -19.807874987785123
dma_12-03-12_12-03-12_06-12-12_06-12-12_06-12-12_06-12-12_06-12-12 6.1.1 0.1474741138126547 -22.20332847466069
dma_12-03-12_12-03-12_09-12-12_09-12-12_09-12-12_09-12-12_09-12-12 2.1.1 0.1275327951179999 -16.67081594455235
dma_15-03-09_15-03-09_05-05-09_05-05-09_05-05-09_05-05-09_05-05-09 1.1.1 0.6056143451250001 -3.2484453357557594
dma_15-05-09_15-05-09_05-03-09_05-03-09_05-03-09_05-03-09_05-03-09 1.1.1 0.63045723075 -3.0060637968906843
dma_17-10-08_17-10-08_01-02-08_01-02-08_01-02-08_01-02-08_01-02-08 9.1.1 0.0942949790916213 -19.108238102455815
dma_17-12-12_17-12-12_02-03-12_02-03-12_02-03-12_02-03-12_02-03-12 6.1.1 0.4604778537859025 -26.481198603195985
dma_23-08-01_23-08-01_02-01-01_02-01-01_02-01-01_02-01-01_02-01-01 5.1.2 0.0795349129644 -13.006006591563189
dma_35-11-03_35-11-03_02-01-03_02-01-03_02-01-03_02-01-03_02-01-03 5.1.1 0.1449707981891999 -19.880125114238364
dmf_30-03-12_11-03-12_07-12-12_07-12-12_07-12-12 1.2.2 0.102318487108 -13.977926189837914
dmf_30-03-12_12-03-12_06-12-12_06-12-12_06-12-12 1.2.2 0.120849503981 -12.645188893154224
dmf_30-03-12_12-03-12_07-12-12_07-12-12_07-12-12 1.2.2 0.1253881920859999 -17.04931419181867
doh_30-03-12_30-03-12_30-03-12_30-03-12_06-12-12_06-12-12_06-12-12_06-12-12_06-12-12_06-12-12_06-12-12 1.1.1 0.089735604165 -12.136403417732824
edi-c_30-03-12_30-03-12_06-12-12_06-12-12_07-12-12 1.2.2 0.180987691481 -20.95320203981633
edi-c_30-03-12_30-03-12_06-12-12_07-12-12_06-12-12 2.2.2 0.134688072827 -14.500139550561238
edi-c_30-03-12_30-03-12_07-12-12_06-12-12_06-12-12 2.2.2 0.2324533857409999 -21.72667377714113
edi-c_30-03-12_30-03-12_07-12-12_06-12-12_07-12-12 2.2.2 0.1195579264012499 -13.877663547097637
edi-c_30-03-12_30-03-12_07-12-12_07-12-12_06-12-12 2.2.2 0.218595530141875 -20.45709206653712
edi-c_30-03-12_30-03-12_07-12-12_07-12-12_07-12-12 2.2.2 0.2215865039095 -20.392847080661333
edi-c_30-03-12_30-03-12_08-12-12_08-12-12_08-12-12 1.1.1 0.118702058304 -14.53978911693918
edi-c_30-03-12_30-03-12_08-12-12_08-12-12_09-12-12 1.1.1 0.1146332489949999 -14.488279505223716
edi-c_30-03-12_30-03-12_09-12-12_08-12-12_08-12-12 1.1.1 0.1780710664000001 -19.627087710216983
edi-c_30-03-12_30-03-12_09-12-12_08-12-12_09-12-12 1.1.1 0.124457675214 -14.62001632499788
edi-c_30-03-12_30-03-12_09-12-12_09-12-12_08-12-12 1.1.1 0.160058896945 -17.27329286482605
eec_17-12-12_31-03-12_28-03-12_None_None 2.2.1 0.1339857854159999 -13.818300391250483
eec_17-12-12_31-03-12_29-03-12_None_None 2.2.1 0.1178176299 -13.817165945982076
eec_33-11-02_31-01-02_29-01-02_None_None 2.2.1 0.09790362893275 -14.395979622534997
eec_34-11-10_31-06-10_28-06-10_None_None 2.2.1 0.09718053778125 -13.473838811012351
eec_34-11-10_31-06-10_29-06-10_None_None 2.2.1 0.104361928792 -13.3840489515753
eed_17-12-12_31-03-12_28-03-12_None_None 2.2.1 0.129200578794 -13.124886813210065
eed_33-11-02_31-01-02_28-01-02_None_None 2.2.1 0.1169208546899999 -15.14324967247028
eed_34-11-10_31-06-10_28-06-10_None_None 2.2.1 0.1629491845625 -16.7664095206096
eed_34-11-10_31-06-10_29-06-10_None_None 2.2.1 0.1282981509919999 -16.918451521900636
epz_28-03-12_17-12-12_31-03-12_None_None 1.1.1 0.0999150902399999 -17.38520338148102
epz_29-03-12_17-12-12_31-03-12_None_None 1.1.1 0.1369307127639999 -17.776373887162435
eta-c_11-03-12_06-12-12_06-12-12 1.1.2 0.1829473673609999 -18.231211516249807
eta-c_11-03-12_06-12-12_07-12-12 1.1.2 0.216020725415 -17.21829193549037
eta-c_12-03-12_06-12-12_06-12-12 1.1.3 0.2488380410119999 -20.16722001737617
eta-c_17-12-12_01-03-12_01-03-12 1.1.2 0.27336962939 -19.865254407229006
eta-c_17-12-12_01-03-12_02-03-12 1.1.2 0.4039858767819999 -24.03213256759711
eta-c_17-12-12_02-03-12_01-03-12 1.1.3 0.2583263015158298 -21.438732089445715
eta-c_17-12-12_02-03-12_02-03-12 1.4.2 1.0556491232437497 -29.79968851567665
etb_15-03-09_05-05-09_05-05-09 1.1.1 0.571693072055 -3.4324023064689384
etc_15-02-05_15-02-05_05-04-05_05-04-05 1.1.1 0.6508357341269999 -3.0420080419479514
etc_15-02-06_15-02-06_05-02-06_05-02-06 1.1.1 0.693370697058 -2.63525683851182
etc_15-03-09_15-03-09_05-05-09_05-05-09 1.1.1 0.6856636438709998 -3.053260447248921
etc_15-04-05_15-04-05_05-02-05_05-02-05 1.1.1 0.6596456933029998 -3.099544923637952
etc_15-05-09_15-05-09_05-03-09_05-03-09 1.1.1 0.693392541628 -2.783599385076865
etd_15-02-05_05-04-05_05-04-05_05-04-05 1.1.1 0.597608896896 -3.491769718176288
etd_15-02-06_05-02-06_05-02-06_05-02-06 1.1.1 0.623228719683 -3.3680028991772715
etd_15-03-09_05-05-09_05-05-09_05-05-09 1.1.1 0.612423136 -3.26855463629459
etd_15-04-05_05-02-05_05-02-05_05-02-05 1.1.1 0.595406407104 -2.782845123787689
etd_15-05-09_05-03-09_05-03-09_05-03-09 1.1.1 0.5881323144999999 -3.500393319426661
eth_15-03-09_15-03-09_05-05-09_05-05-09_05-05-09_05-05-09 1.1.1 0.6190479054999999 -3.230125603077744
eti_35-11-03_35-11-03_01-01-03_01-01-03_01-01-03_01-01-03 1.1.2 0.18702606348 -20.170486821741733
eti_35-11-03_35-11-03_04-01-03_04-01-03_04-01-03_04-01-03 1.1.3 0.1611800365195754 -17.961464224996128
etm_35-11-03_35-11-03_01-01-03_01-01-03_01-01-03_01-01-03 3.1.1 0.1874879624416656 -18.09937903770674
fes_11-03-12_06-12-12_06-12-12 2.2.3 0.716281147396948 -30.16178960780458
fes_12-03-12_06-12-12_07-12-12 2.2.3 0.5641152995173683 -29.8044177964983
fes_17-12-12_01-03-12_02-03-12 2.2.4 0.3697777694407499 -26.40949668186689
fes_17-12-12_02-03-12_01-03-12 1.2.4 0.576280514209125 -27.97868338391612
fes_18-12-12_02-03-12_02-03-12 1.1.4 0.18289440584225 -21.3899988775602
fes_19-12-12_02-03-12_01-03-12 1.1.4 0.089157579168 -17.579278618084615
fes_23-12-12_01-03-12_01-03-12 2.2.3 0.1502905901879646 -15.655808955940524
fes_23-12-12_02-03-12_01-03-12 3.2.5 0.3146024967334372 -23.237578199809207
fes_23-12-12_04-03-12_03-03-12 2.1.3 0.2217492159086737 -19.99965343458243
fes_35-11-03_01-01-03_02-01-03 2.2.3 0.2279816064276636 -20.65207495229781
fes_35-11-03_02-01-03_01-01-03 2.2.3 0.2476152654467021 -21.03453988757736
ffc-a_11-03-09_11-03-09_11-03-09_11-03-09_05-05-09_05-05-09_05-05-09_05-05-09_05-05-09_05-05-09_05-05-09 1.1.1 0.625679194639 -3.0187966145191694
ffc-a_11-04-05_11-04-05_11-04-05_11-04-05_05-02-05_05-02-05_05-02-05_05-02-05_05-02-05_05-02-05_05-02-05 1.1.1 0.6464189599 -3.945813100923596
ffc-a_12-03-09_12-03-09_12-03-09_12-03-09_05-05-09_05-05-09_05-05-09_05-05-09_05-05-09_05-05-09_05-05-09 1.1.1 0.650271319024 -3.479091940221234
ffc-a_13-02-05_13-02-05_13-02-05_13-02-05_03-04-05_03-04-05_03-04-05_03-04-05_03-04-05_03-04-05_03-04-05 1.1.1 0.6391988478040002 -2.995606843790005
ffc-a_13-02-05_13-02-05_13-02-05_13-02-05_04-04-05_04-04-05_04-04-05_04-04-05_04-04-05_04-04-05_04-04-05 1.1.1 0.587721014244 -3.1641112290774656
ffc-a_13-02-06_13-02-06_13-02-06_13-02-06_03-02-06_03-02-06_03-02-06_03-02-06_03-02-06_03-02-06_03-02-06 1.1.1 0.7825083420719998 -2.905253262315785
ffc-a_13-02-06_13-02-06_13-02-06_13-02-06_04-02-06_04-02-06_04-02-06_04-02-06_04-02-06_04-02-06_04-02-06 1.1.1 0.687118067925 -2.9917232277568404
ffc-a_13-03-09_13-03-09_13-03-09_13-03-09_04-05-09_04-05-09_04-05-09_04-05-09_04-05-09_04-05-09_04-05-09 1.1.1 0.7039381552700001 -3.28001100990236
ffc-a_13-04-05_13-04-05_13-04-05_13-04-05_03-02-05_03-02-05_03-02-05_03-02-05_03-02-05_03-02-05_03-02-05 1.1.1 0.7217667130300001 -3.208139610342166
ffc-a_13-04-05_13-04-05_13-04-05_13-04-05_04-02-05_04-02-05_04-02-05_04-02-05_04-02-05_04-02-05_04-02-05 1.1.1 0.669633350724 -3.0140462377019004
ffc-a_13-05-09_13-05-09_13-05-09_13-05-09_03-03-09_03-03-09_03-03-09_03-03-09_03-03-09_03-03-09_03-03-09 1.1.1 0.746656001272 -3.4918222233415817
ffc-a_13-05-09_13-05-09_13-05-09_13-05-09_04-03-09_04-03-09_04-03-09_04-03-09_04-03-09_04-03-09_04-03-09 1.1.1 0.7075349195670002 -3.332367622086726
ffc-a_14-02-05_14-02-05_14-02-05_14-02-05_04-04-05_04-04-05_04-04-05_04-04-05_04-04-05_04-04-05_04-04-05 1.1.1 0.6452693122700001 -3.346262481605375
ffc-a_14-02-06_14-02-06_14-02-06_14-02-06_03-02-06_03-02-06_03-02-06_03-02-06_03-02-06_03-02-06_03-02-06 1.1.1 0.613536553944 -2.841492746323524
ffc-a_14-03-09_14-03-09_14-03-09_14-03-09_03-05-09_03-05-09_03-05-09_03-05-09_03-05-09_03-05-09_03-05-09 1.1.1 0.7352471808220001 -3.329643089665923
ffc-a_14-03-09_14-03-09_14-03-09_14-03-09_04-05-09_04-05-09_04-05-09_04-05-09_04-05-09_04-05-09_04-05-09 1.1.1 0.6404520808530001 -3.616010283750233
ffc-a_14-04-05_14-04-05_14-04-05_14-04-05_03-02-05_03-02-05_03-02-05_03-02-05_03-02-05_03-02-05_03-02-05 1.1.1 0.7334398349249999 -3.30126497028513
ffc-a_14-04-05_14-04-05_14-04-05_14-04-05_04-02-05_04-02-05_04-02-05_04-02-05_04-02-05_04-02-05_04-02-05 1.1.1 0.658531764538 -3.609088194297085
ffc-a_14-05-09_14-05-09_14-05-09_14-05-09_04-03-09_04-03-09_04-03-09_04-03-09_04-03-09_04-03-09_04-03-09 1.1.1 0.695742907977 -3.323454560116082
ffc-a_15-02-04_15-02-04_15-02-04_15-02-04_01-03-04_01-03-04_01-03-04_01-03-04_01-03-04_01-03-04_01-03-04 1.1.1 0.66954630288 -3.044035691100463
ffc-a_15-02-04_15-02-04_15-02-04_15-02-04_04-03-04_04-03-04_04-03-04_04-03-04_04-03-04_04-03-04_04-03-04 1.1.1 0.7685177771320001 -2.6857029919898605
ffc-a_15-02-05_15-02-05_15-02-05_15-02-05_01-04-05_01-04-05_01-04-05_01-04-05_01-04-05_01-04-05_01-04-05 1.1.1 0.7633850185060003 -2.825421008122905
ffc-a_15-02-05_15-02-05_15-02-05_15-02-05_02-04-05_02-04-05_02-04-05_02-04-05_02-04-05_02-04-05_02-04-05 1.1.1 0.5917175199850001 -3.0320602039300266
ffc-a_15-02-05_15-02-05_15-02-05_15-02-05_03-04-05_03-04-05_03-04-05_03-04-05_03-04-05_03-04-05_03-04-05 1.1.1 0.9727089957 -3.143282905514211
ffc-a_15-02-05_15-02-05_15-02-05_15-02-05_04-04-05_04-04-05_04-04-05_04-04-05_04-04-05_04-04-05_04-04-05 1.1.1 0.8178672988300001 -3.29745724598414
ffc-a_15-02-06_15-02-06_15-02-06_15-02-06_01-02-06_01-02-06_01-02-06_01-02-06_01-02-06_01-02-06_01-02-06 1.1.1 0.7588705740169999 -2.573669004364052
ffc-a_15-02-06_15-02-06_15-02-06_15-02-06_02-02-06_02-02-06_02-02-06_02-02-06_02-02-06_02-02-06_02-02-06 1.1.1 0.6982116983750002 -2.6596146659644098
ffc-a_15-02-06_15-02-06_15-02-06_15-02-06_03-02-06_03-02-06_03-02-06_03-02-06_03-02-06_03-02-06_03-02-06 1.1.1 0.9052766944 -2.7087260478899564
ffc-a_15-02-06_15-02-06_15-02-06_15-02-06_04-02-06_04-02-06_04-02-06_04-02-06_04-02-06_04-02-06_04-02-06 1.1.1 0.8532787537559998 -2.6590881812278986
ffc-a_15-03-09_15-03-09_15-03-09_15-03-09_02-05-09_02-05-09_02-05-09_02-05-09_02-05-09_02-05-09_02-05-09 1.1.1 0.7368052403059999 -3.1664400461590287
ffc-a_15-03-09_15-03-09_15-03-09_15-03-09_03-05-09_03-05-09_03-05-09_03-05-09_03-05-09_03-05-09_03-05-09 1.1.1 1.0481998808400002 -2.6231546284055294
ffc-a_15-04-05_15-04-05_15-04-05_15-04-05_01-02-05_01-02-05_01-02-05_01-02-05_01-02-05_01-02-05_01-02-05 1.1.1 0.8122130774120001 -2.9150863527025983
ffc-a_15-04-05_15-04-05_15-04-05_15-04-05_02-02-05_02-02-05_02-02-05_02-02-05_02-02-05_02-02-05_02-02-05 1.1.1 0.71398173292 -2.834151977273527
ffc-a_15-04-05_15-04-05_15-04-05_15-04-05_03-02-05_03-02-05_03-02-05_03-02-05_03-02-05_03-02-05_03-02-05 1.1.1 1.037214960678 -2.711052381960024
ffc-a_15-04-05_15-04-05_15-04-05_15-04-05_04-02-05_04-02-05_04-02-05_04-02-05_04-02-05_04-02-05_04-02-05 1.1.1 0.96037091674 -2.946371263161993
ffc-a_15-05-09_15-05-09_15-05-09_15-05-09_01-03-09_01-03-09_01-03-09_01-03-09_01-03-09_01-03-09_01-03-09 1.1.1 0.87487010842 -3.035457198821929
ffc-a_15-05-09_15-05-09_15-05-09_15-05-09_03-03-09_03-03-09_03-03-09_03-03-09_03-03-09_03-03-09_03-03-09 1.1.1 1.034840470594 -2.919970943004433
ffc-a_15-05-09_15-05-09_15-05-09_15-05-09_04-03-09_04-03-09_04-03-09_04-03-09_04-03-09_04-03-09_04-03-09 1.1.1 0.96737000845 -2.887360869584796
ffc-a_16-02-05_16-02-05_16-02-05_16-02-05_05-04-05_05-04-05_05-04-05_05-04-05_05-04-05_05-04-05_05-04-05 1.1.1 0.8279824127080001 -2.987294703886472
ffc-a_16-02-06_16-02-06_16-02-06_16-02-06_03-02-06_03-02-06_03-02-06_03-02-06_03-02-06_03-02-06_03-02-06 1.1.1 0.663785521056 -3.0175679144957823
ffc-a_16-03-09_16-03-09_16-03-09_16-03-09_05-05-09_05-05-09_05-05-09_05-05-09_05-05-09_05-05-09_05-05-09 1.1.1 0.8708975984880002 -2.892187090983393
ffc-a_16-04-05_16-04-05_16-04-05_16-04-05_05-02-05_05-02-05_05-02-05_05-02-05_05-02-05_05-02-05_05-02-05 1.1.1 0.800119619312 -3.274012474899662
ffc-a_16-05-09_16-05-09_16-05-09_16-05-09_03-03-09_03-03-09_03-03-09_03-03-09_03-03-09_03-03-09_03-03-09 1.1.1 0.610459157535 -3.674290252890716
ffc-a_16-05-09_16-05-09_16-05-09_16-05-09_05-03-09_05-03-09_05-03-09_05-03-09_05-03-09_05-03-09_05-03-09 1.1.1 0.856716315754 -2.9225649730061605
ffc-a_19-08-01_19-08-01_19-08-01_19-08-01_05-01-01_05-01-01_05-01-01_05-01-01_05-01-01_05-01-01_05-01-01 1.1.1 0.667285495416 -3.1046938384282208
ffc-a_19-10-08_19-10-08_19-10-08_19-10-08_05-02-08_05-02-08_05-02-08_05-02-08_05-02-08_05-02-08_05-02-08 1.1.1 0.6603298777939999 -3.3389908130345543
ffc-a_19-12-12_19-12-12_19-12-12_19-12-12_05-03-12_05-03-12_05-03-12_05-03-12_05-03-12_05-03-12_05-03-12 1.1.1 0.6151906505520001 -2.9528456397507843
ffc-a_20-10-08_20-10-08_20-10-08_20-10-08_05-02-08_05-02-08_05-02-08_05-02-08_05-02-08_05-02-08_05-02-08 1.1.1 0.7454274849359999 -2.8019525447140965
ffc-a_20-12-12_20-12-12_20-12-12_20-12-12_05-03-12_05-03-12_05-03-12_05-03-12_05-03-12_05-03-12_05-03-12 1.1.1 0.761957262672 -3.1337296295840864
ffc-a_21-08-01_21-08-01_21-08-01_21-08-01_05-01-01_05-01-01_05-01-01_05-01-01_05-01-01_05-01-01_05-01-01 1.1.1 0.612239583816 -3.074651760155243
ffc-a_21-12-12_21-12-12_21-12-12_21-12-12_05-03-12_05-03-12_05-03-12_05-03-12_05-03-12_05-03-12_05-03-12 1.1.1 0.622646363496 -3.505963858968426
ffc-a_32-02-04_32-02-04_32-02-04_32-02-04_05-03-04_05-03-04_05-03-04_05-03-04_05-03-04_05-03-04_05-03-04 1.1.1 0.7657703789900002 -3.1834000041311152
ffc-a_32-02-05_32-02-05_32-02-05_32-02-05_03-04-05_03-04-05_03-04-05_03-04-05_03-04-05_03-04-05_03-04-05 1.1.1 0.5670398022800002 -3.438851568262859
ffc-a_32-02-06_32-02-06_32-02-06_32-02-06_03-02-06_03-02-06_03-02-06_03-02-06_03-02-06_03-02-06_03-02-06 1.1.1 0.587094435026 -2.766926168082894
ffc-a_32-02-06_32-02-06_32-02-06_32-02-06_04-02-06_04-02-06_04-02-06_04-02-06_04-02-06_04-02-06_04-02-06 1.1.1 0.63179558663 -2.838044564969373
ffc-a_32-03-09_32-03-09_32-03-09_32-03-09_03-05-09_03-05-09_03-05-09_03-05-09_03-05-09_03-05-09_03-05-09 1.1.1 0.583641729849 -3.4398740105571024
ffc-a_32-03-09_32-03-09_32-03-09_32-03-09_04-05-09_04-05-09_04-05-09_04-05-09_04-05-09_04-05-09_04-05-09 1.1.1 0.689924808032 -3.380903767213618
ffc-a_32-04-05_32-04-05_32-04-05_32-04-05_04-02-05_04-02-05_04-02-05_04-02-05_04-02-05_04-02-05_04-02-05 1.1.1 0.58408320033 -3.833367008298813
ffc-a_32-05-09_32-05-09_32-05-09_32-05-09_03-03-09_03-03-09_03-03-09_03-03-09_03-03-09_03-03-09_03-03-09 1.1.1 0.7141720525650002 -3.262705719480961
ffc_31-03-12_31-03-12_17-12-12_None_None 1.1.2 0.1442902238965 -15.859338194989792
ffc_31-06-10_31-06-10_34-11-10_None_None 2.2.3 0.0854252392217016 -14.6545756144105
ffd_28-06-10_31-06-10_34-11-10_34-11-10_None_None_None_None 1.1.2 0.167261310474 -16.411409413413256
ffi-a_11-04-05_11-04-05_11-04-05_11-04-05_11-04-05_01-02-05_01-02-05_01-02-05_01-02-05_01-02-05_01-02-05_01-02-05_01-02-05 1.1.1 0.5794205554899999 -3.7373338438814994
fjh_12-03-12_25-12-12_25-12-12_None_None 1.1.1 0.088531447687 -11.755992858505508
fjh_17-10-08_31-02-08_31-02-08_None_None 1.1.2 0.082270422 -11.016453199738274
fjh_17-12-12_31-03-12_31-03-12_None_None 1.1.2 0.2276710499525 -19.20725493117911
fjh_33-11-02_31-01-02_31-01-02_None_None 1.1.2 0.120510457515 -15.31423177330902
fmj_17-12-12_17-12-12_31-03-12_31-03-12_31-03-12_None_None_None_None 1.1.1 0.1300977428299999 -14.9930753959479
fmj_33-11-02_33-11-02_31-01-02_31-01-02_31-01-02_None_None_None_None 2.2.1 0.12959656343875 -15.88660212201
fmj_34-11-10_34-11-10_31-06-10_31-06-10_31-06-10_None_None_None_None 2.2.1 0.1878722008799999 -16.839865096953485
fss_12-03-12_12-03-12_12-03-12_12-03-12_06-12-12_06-12-12_06-12-12_06-12-12_06-12-12 1.1.3 0.1577902415916041 -21.06781688484396
fss_12-03-12_12-03-12_12-03-12_12-03-12_10-12-12_10-12-12_10-12-12_10-12-12_10-12-12 1.1.3 0.171548348215696 -19.68877473623627
fss_17-10-08_17-10-08_17-10-08_17-10-08_01-02-08_01-02-08_01-02-08_01-02-08_01-02-08 1.1.4 0.13885729107375 -20.98960355164498
fss_17-12-12_17-12-12_17-12-12_17-12-12_02-03-12_02-03-12_02-03-12_02-03-12_02-03-12 1.1.3 0.6480570017946341 -28.36711848085462
fss_18-12-12_18-12-12_18-12-12_18-12-12_02-03-12_02-03-12_02-03-12_02-03-12_02-03-12 1.1.4 0.185759592454 -20.262541681527747
fss_35-11-03_35-11-03_35-11-03_35-11-03_02-01-03_02-01-03_02-01-03_02-01-03_02-01-03 1.1.3 0.1437474617088348 -17.331121538281938
fsv_11-02-08_11-02-08_11-02-08_11-02-08_11-02-08_06-10-08_06-10-08_06-10-08_06-10-08_06-10-08_06-10-08_06-10-08_06-10-08 1.1.4 0.1055815798794999 -19.72619786232626
fsv_11-03-09_11-03-09_11-03-09_11-03-09_11-03-09_01-05-09_01-05-09_01-05-09_01-05-09_01-05-09_01-05-09_01-05-09_01-05-09 1.1.4 0.1828877506399999 -22.23503565371352
fsv_12-03-09_12-03-09_12-03-09_12-03-09_12-03-09_02-05-09_02-05-09_02-05-09_02-05-09_02-05-09_02-05-09_02-05-09_02-05-09 1.1.4 0.1949026812134999 -24.227337358101657
fsv_12-03-12_12-03-12_12-03-12_12-03-12_12-03-12_06-12-12_06-12-12_06-12-12_06-12-12_06-12-12_06-12-12_06-12-12_06-12-12 1.1.3 0.8088802230500001 -32.899851138616945
fsv_12-03-12_12-03-12_12-03-12_12-03-12_12-03-12_10-12-12_10-12-12_10-12-12_10-12-12_10-12-12_10-12-12_10-12-12_10-12-12 1.1.3 0.184340038332993 -21.52085695543255
fsv_23-10-08_23-10-08_23-10-08_23-10-08_23-10-08_01-02-08_01-02-08_01-02-08_01-02-08_01-02-08_01-02-08_01-02-08_01-02-08 1.1.3 0.1162212739574904 -14.377679026513134
fsv_23-12-12_23-12-12_23-12-12_23-12-12_23-12-12_01-03-12_01-03-12_01-03-12_01-03-12_01-03-12_01-03-12_01-03-12_01-03-12 1.1.3 0.175217679549 -17.545814384293966
fsv_23-12-12_23-12-12_23-12-12_23-12-12_23-12-12_03-03-12_03-03-12_03-03-12_03-03-12_03-03-12_03-03-12_03-03-12_03-03-12 1.1.3 0.1937254369313926 -18.47550949853176
fsv_23-12-12_23-12-12_23-12-12_23-12-12_23-12-12_04-03-12_04-03-12_04-03-12_04-03-12_04-03-12_04-03-12_04-03-12_04-03-12 1.1.3 0.1679110300669472 -18.50719123688872
fsv_35-11-03_35-11-03_35-11-03_35-11-03_35-11-03_01-01-03_01-01-03_01-01-03_01-01-03_01-01-03_01-01-03_01-01-03_01-01-03 1.2.3 0.3738789304348806 -23.87680283426077
fsz-a_35-11-03_35-11-03_35-11-03_35-11-03_35-11-03_01-01-03_01-01-03_01-01-03_01-01-03_01-01-03_01-01-03_01-01-03_01-01-03 1.1.3 0.2290492017394956 -20.336519450352917
ftd_30-03-12_30-03-12_06-12-12_06-12-12_06-12-12_06-12-12_06-12-12_06-12-12_06-12-12 1.1.1 0.0959016471519999 -13.123788796759415
ftf_30-03-12_30-03-12_06-12-12_06-12-12_06-12-12_06-12-12_06-12-12_06-12-12_06-12-12 1.1.1 0.1037075952689999 -12.661129029545544
fuy_30-03-12_30-03-12_06-12-12_06-12-12_06-12-12_06-12-12_06-12-12 1.1.1 0.181395363768 -19.01680018752166
fve_30-03-12_30-03-12_06-12-12_06-12-12_06-12-12_06-12-12_06-12-12_06-12-12 1.1.1 0.1109559754839999 -14.678445456745678
fvk_30-03-12_30-03-12_06-12-12_06-12-12_06-12-12_06-12-12_06-12-12 1.1.1 0.104822730561 -12.832551118543243
fvn_30-03-12_30-03-12_06-12-12_06-12-12_06-12-12_06-12-12_06-12-12 1.1.2 0.1130003904299999 -15.359512480108034
fvu_30-03-12_30-03-12_06-12-12_06-12-12_06-12-12_06-12-12_06-12-12 1.1.2 0.1029641715084999 -13.297486748815906
fvv_30-03-12_30-03-12_06-12-12_06-12-12_06-12-12_06-12-12_06-12-12_06-12-12 1.1.1 0.10482273042 -12.502419095907824
fvw_30-03-12_30-03-12_06-12-12_06-12-12_06-12-12_06-12-12_06-12-12_06-12-12 1.1.1 0.113743814013 -14.73182234868126
fwa_31-02-08_31-02-08_31-02-08_07-10-08_06-10-08_06-10-08 2.1.4 0.1638396942824999 -18.67396664009061
fwd_31-03-09_31-03-09_31-03-09_01-05-09_01-05-09_01-05-09_01-05-09_01-05-09 1.1.3 0.148569928641251 -18.47467660153372
fwd_31-03-09_31-03-09_31-03-09_03-05-09_03-05-09_03-05-09_03-05-09_03-05-09 1.1.3 0.1751547906386441 -19.659419908592408
fwe_31-02-08_31-02-08_06-10-08_06-10-08_07-10-08 1.1.3 0.170168938127 -20.608499316722803
fwe_31-02-08_31-02-08_06-10-08_07-10-08_06-10-08 1.1.3 0.1716450176566208 -18.656099083872856
fwe_31-03-09_31-03-09_01-05-09_01-05-09_01-05-09 1.1.3 0.1701140216960739 -21.626255995102536
fwe_31-03-12_31-03-12_06-12-12_06-12-12_07-12-12 1.1.3 0.282391367379603 -23.180012906332948
fxt_11-03-12_06-12-12_06-12-12_06-12-12 1.2.4 0.4364714132865 -25.61430113161975
fxt_23-12-12_02-03-12_02-03-12_02-03-12 1.1.4 0.194113183359 -21.329392565078276
fxt_35-11-03_01-01-03_02-01-03_02-01-03 1.1.3 0.317111440364286 -23.28183174032029
fxt_35-11-03_02-01-03_01-01-03_02-01-03 1.1.3 0.1587420632290177 -19.1854746242676
fxt_35-11-03_02-01-03_02-01-03_01-01-03 1.1.3 0.2645701128343747 -23.153839476981048
gee_31-03-12_17-12-12_31-03-12_None_None 1.1.1 0.201848619264 -19.543436271587066
gsi_30-02-06_None_None 2.2.2 0.071198983921875 -11.44168501499266
gsi_30-03-12_06-12-12_06-12-12 1.1.1 0.0892108345599999 -14.57668595565266
gsi_30-03-12_06-12-12_07-12-12 1.1.1 0.1089121632899999 -14.36458574101452
gsi_30-03-12_07-12-12_06-12-12 1.1.1 0.1000876211 -13.45644568068722
gsi_30-03-12_07-12-12_07-12-12 1.1.1 0.1013661957 -14.458260009424247
gsi_30-03-12_08-12-12_08-12-12 1.1.1 0.107419180401 -13.253936755574864
gsi_30-03-12_08-12-12_09-12-12 1.1.1 0.118978593216 -14.84101864490759
gwg-a_13-02-05_13-02-05_13-02-05_13-02-05_13-02-05_05-04-05_05-04-05_05-04-05_05-04-05_05-04-05_05-04-05_05-04-05_05-04-05 1.1.1 0.65238976384 -3.026663889425035
gwg-a_13-02-06_13-02-06_13-02-06_13-02-06_13-02-06_05-02-06_05-02-06_05-02-06_05-02-06_05-02-06_05-02-06_05-02-06_05-02-06 1.1.1 0.7009737303259999 -3.460644293341875
gwg-a_13-03-09_13-03-09_13-03-09_13-03-09_13-03-09_05-05-09_05-05-09_05-05-09_05-05-09_05-05-09_05-05-09_05-05-09_05-05-09 1.1.1 0.711286761068 -3.3161411215342187
gwg-a_13-04-05_13-04-05_13-04-05_13-04-05_13-04-05_05-02-05_05-02-05_05-02-05_05-02-05_05-02-05_05-02-05_05-02-05_05-02-05 1.1.1 0.6792003020799998 -2.922651460641714
gwg-a_14-02-05_14-02-05_14-02-05_14-02-05_14-02-05_05-04-05_05-04-05_05-04-05_05-04-05_05-04-05_05-04-05_05-04-05_05-04-05 1.1.1 0.638380293263 -3.6436285736529808
gwg-a_14-02-06_14-02-06_14-02-06_14-02-06_14-02-06_05-02-06_05-02-06_05-02-06_05-02-06_05-02-06_05-02-06_05-02-06_05-02-06 1.1.1 0.6640596632800002 -3.106686488255729
gwg-a_14-03-09_14-03-09_14-03-09_14-03-09_14-03-09_05-05-09_05-05-09_05-05-09_05-05-09_05-05-09_05-05-09_05-05-09_05-05-09 1.1.1 0.7078922816 -3.0141353866770184
gwg-a_14-04-05_14-04-05_14-04-05_14-04-05_14-04-05_05-02-05_05-02-05_05-02-05_05-02-05_05-02-05_05-02-05_05-02-05_05-02-05 1.1.1 0.678249745818 -3.2510193973859995
gwg-a_14-05-09_14-05-09_14-05-09_14-05-09_14-05-09_05-03-09_05-03-09_05-03-09_05-03-09_05-03-09_05-03-09_05-03-09_05-03-09 1.1.1 0.7196512896000001 -2.8920120095390227
gwg-a_15-02-04_15-02-04_15-02-04_15-02-04_15-02-04_05-03-04_05-03-04_05-03-04_05-03-04_05-03-04_05-03-04_05-03-04_05-03-04 1.1.1 0.8006919882210001 -2.8436879620508746
gwg-a_15-02-05_15-02-05_15-02-05_15-02-05_15-02-05_03-04-05_03-04-05_03-04-05_03-04-05_03-04-05_03-04-05_03-04-05_03-04-05 1.1.1 0.7408970839439999 -3.285520600260305
gwg-a_15-02-05_15-02-05_15-02-05_15-02-05_15-02-05_05-04-05_05-04-05_05-04-05_05-04-05_05-04-05_05-04-05_05-04-05_05-04-05 1.1.1 0.8391486118950001 -2.9143791091090225
gwg-a_15-02-06_15-02-06_15-02-06_15-02-06_15-02-06_03-02-06_03-02-06_03-02-06_03-02-06_03-02-06_03-02-06_03-02-06_03-02-06 1.1.1 0.7442418978 -2.8534193970897053
gwg-a_15-02-06_15-02-06_15-02-06_15-02-06_15-02-06_05-02-06_05-02-06_05-02-06_05-02-06_05-02-06_05-02-06_05-02-06_05-02-06 1.1.1 0.8904581567200001 -2.998805657204597
gwg-a_15-03-09_15-03-09_15-03-09_15-03-09_15-03-09_03-05-09_03-05-09_03-05-09_03-05-09_03-05-09_03-05-09_03-05-09_03-05-09 1.1.1 0.7590200311149998 -3.1611228704822976
gwg-a_15-03-09_15-03-09_15-03-09_15-03-09_15-03-09_04-05-09_04-05-09_04-05-09_04-05-09_04-05-09_04-05-09_04-05-09_04-05-09 1.1.1 0.6427111949500001 -3.017745308949681
gwg-a_15-03-09_15-03-09_15-03-09_15-03-09_15-03-09_05-05-09_05-05-09_05-05-09_05-05-09_05-05-09_05-05-09_05-05-09_05-05-09 1.1.1 0.9181930527 -3.055870646462928
gwg-a_15-04-05_15-04-05_15-04-05_15-04-05_15-04-05_03-02-05_03-02-05_03-02-05_03-02-05_03-02-05_03-02-05_03-02-05_03-02-05 1.1.1 0.6677903235880001 -3.636925143167202
gwg-a_15-04-05_15-04-05_15-04-05_15-04-05_15-04-05_04-02-05_04-02-05_04-02-05_04-02-05_04-02-05_04-02-05_04-02-05_04-02-05 1.1.1 0.62645154804 -3.713344518850093
gwg-a_15-04-05_15-04-05_15-04-05_15-04-05_15-04-05_05-02-05_05-02-05_05-02-05_05-02-05_05-02-05_05-02-05_05-02-05_05-02-05 1.1.1 0.952356587358 -2.693745695693506
gwg-a_15-05-09_15-05-09_15-05-09_15-05-09_15-05-09_03-03-09_03-03-09_03-03-09_03-03-09_03-03-09_03-03-09_03-03-09_03-03-09 1.1.1 0.7220247412149999 -2.9803165530096534
gwg-a_15-05-09_15-05-09_15-05-09_15-05-09_15-05-09_04-03-09_04-03-09_04-03-09_04-03-09_04-03-09_04-03-09_04-03-09_04-03-09 1.1.1 0.60533768053 -3.027194868393688
gwg-a_15-05-09_15-05-09_15-05-09_15-05-09_15-05-09_05-03-09_05-03-09_05-03-09_05-03-09_05-03-09_05-03-09_05-03-09_05-03-09 1.1.1 0.9729578139 -2.7656354199729734
gwg-a_16-03-09_16-03-09_16-03-09_16-03-09_16-03-09_05-05-09_05-05-09_05-05-09_05-05-09_05-05-09_05-05-09_05-05-09_05-05-09 1.1.1 0.6206396688799999 -3.0184567227147965
gwg-a_16-04-05_16-04-05_16-04-05_16-04-05_16-04-05_05-02-05_05-02-05_05-02-05_05-02-05_05-02-05_05-02-05_05-02-05_05-02-05 1.1.1 0.5589193187199999 -3.913636746828748
gwg-a_16-05-09_16-05-09_16-05-09_16-05-09_16-05-09_05-03-09_05-03-09_05-03-09_05-03-09_05-03-09_05-03-09_05-03-09_05-03-09 1.1.1 0.6071257406059999 -3.323380803894155
gwg-a_32-03-09_32-03-09_32-03-09_32-03-09_32-03-09_05-05-09_05-05-09_05-05-09_05-05-09_05-05-09_05-05-09_05-05-09_05-05-09 1.1.1 0.6295026711399999 -4.00543509382088
gwg-a_32-04-05_32-04-05_32-04-05_32-04-05_32-04-05_05-02-05_05-02-05_05-02-05_05-02-05_05-02-05_05-02-05_05-02-05_05-02-05 1.1.1 0.6468493307579999 -3.608908157182467
hbt_25-12-12_17-12-12_25-12-12_03-03-12_03-03-12_03-03-12 1.3.6 0.181391296935081 -23.31401852231224
hbt_25-12-12_20-12-12_25-12-12_01-03-12_01-03-12_01-03-12 1.3.6 0.1607802428989644 -21.45352282950348
hbt_25-12-12_23-12-12_25-12-12_04-03-12_04-03-12_04-03-12 1.1.4 0.1762432170149999 -21.234317714003
hbt_31-03-09_14-05-09_31-03-09_None_None_None 1.1.3 0.1148831622605545 -17.890477212153026
hbt_31-03-12_12-03-12_31-03-12_10-12-12_10-12-12_10-12-12 1.1.4 0.3279461265315 -24.18506233119086
hbt_31-03-12_14-03-12_31-03-12_06-12-12_06-12-12_06-12-12 1.1.3 0.0852477634123713 -16.405221173623467
hbt_31-05-09_12-03-09_31-05-09_None_None_None 1.1.3 0.4433498586564481 -24.812386457111
hbt_31-05-09_32-03-09_31-05-09_None_None_None 1.1.3 0.131500773390694 -19.14376039169692
hca_23-12-12_01-03-12_01-03-12 1.1.3 0.2362921943959763 -19.07268233483267
hcb_11-02-05_01-04-05 2.2.5 0.2122027471322999 -22.98992935809374
hcb_11-03-12_06-12-12 2.2.4 0.147067603526875 -19.457698273578416
hcb_11-04-05_01-02-05 2.2.5 0.4190847764161499 -26.82435862296457
hcb_11-04-05_02-02-05 2.2.5 0.164096000406 -21.53985955811808
hcb_11-04-05_04-02-05 2.2.5 0.3938333408707499 -28.334557669609367
hcb_11-05-09_01-03-09 2.2.5 0.4953735453465499 -30.03458465890714
hcb_12-01-01_06-08-01 2.2.5 0.0806594518197 -18.90873865906469
hcb_12-03-09_02-05-09 2.2.4 0.114848314405125 -21.27517632954165
hcb_12-03-12_06-12-12 2.2.3 0.1556799293595952 -19.73794595749633
hcb_12-03-12_10-12-12 2.2.4 0.1679561832526875 -21.38541637995127
hcb_17-10-08_01-02-08 2.2.4 0.19665194745675 -25.082749507310456
hcb_19-12-12_02-03-12 3.2.5 0.1722939070726984 -21.13760696208572
hcb_20-12-12_02-03-12 1.2.5 0.1499619191958 -19.51709715199539
hcb_35-11-03_01-01-03 2.2.2 0.090395930682 -13.647449661315338
hha_15-02-05_15-02-05_15-02-05_15-02-05_03-04-05_03-04-05_03-04-05_03-04-05_03-04-05_03-04-05_03-04-05 1.1.1 0.582857470404 -3.2496946209119697
hha_15-02-06_15-02-06_15-02-06_15-02-06_03-02-06_03-02-06_03-02-06_03-02-06_03-02-06_03-02-06_03-02-06 1.1.1 0.6172093820219999 -3.2223725374512577
hha_15-04-05_15-04-05_15-04-05_15-04-05_03-02-05_03-02-05_03-02-05_03-02-05_03-02-05_03-02-05_03-02-05 1.1.1 0.57850587752 -3.1505409524402608
hha_15-05-09_15-05-09_15-05-09_15-05-09_03-03-09_03-03-09_03-03-09_03-03-09_03-03-09_03-03-09_03-03-09 1.1.1 0.6011734599 -3.3968490112416942
hna_11-03-12_11-03-12_06-12-12_06-12-12_06-12-12 1.1.4 0.2313127634399999 -22.22088877461599
hna_12-02-05_11-02-05_01-04-05_01-04-05_01-04-05 1.1.5 0.3087522411678 -23.95310504284176
hna_12-03-09_12-03-09_02-05-09_02-05-09_02-05-09 1.1.4 0.1819846031649999 -21.82696083699137
hna_12-03-12_11-03-12_06-12-12_06-12-12_06-12-12 1.1.4 0.1879752863339999 -19.304631498415883
hna_12-03-12_12-03-12_06-12-12_06-12-12_06-12-12 1.1.3 0.1788133035898095 -21.20803254440192
hna_17-12-12_17-12-12_02-03-12_02-03-12_02-03-12 1.1.3 0.8034777591002655 -29.87890209516608
hna_18-12-12_23-12-12_01-03-12_01-03-12_01-03-12 1.1.4 0.2900584887075 -20.768073860752303
hna_18-12-12_23-12-12_03-03-12_03-03-12_03-03-12 1.1.3 0.165732432012592 -17.562362542762767
hna_18-12-12_23-12-12_04-03-12_04-03-12_04-03-12 1.1.4 0.24040666341 -20.67155450174388
hna_23-12-12_18-12-12_01-03-12_01-03-12_01-03-12 1.1.4 0.295719082912 -22.61184620428629
hna_23-12-12_18-12-12_03-03-12_03-03-12_03-03-12 1.1.4 0.1953257546325 -20.52648257790023
hna_35-11-03_35-11-03_01-01-03_02-01-03_01-01-03 1.1.3 0.2739996538763475 -22.607640155674684
hna_35-11-03_35-11-03_02-01-03_01-01-03_01-01-03 1.1.3 0.2644480458665398 -22.837490726529406
hna_35-11-03_35-11-03_02-01-03_01-01-03_02-01-03 2.1.3 0.1599967302726196 -17.880096752162014
hna_35-11-03_35-11-03_02-01-03_02-01-03_01-01-03 1.1.3 0.2564255419711914 -22.47886518042849
hnb_11-03-12_11-03-12_06-12-12_07-12-12 2.2.3 0.5064452970700305 -27.465955639813192
hnb_11-03-12_12-03-12_06-12-12_06-12-12 1.2.3 0.2544602031161739 -24.279910998488337
hnb_12-03-12_12-03-12_06-12-12_06-12-12 1.1.3 0.2044474164796547 -23.7070096531567
hnb_17-12-12_17-12-12_02-03-12_02-03-12 2.2.4 0.5743578227605625 -27.52917115850196
hnb_18-12-12_23-12-12_02-03-12_02-03-12 2.1.3 0.2621417313443124 -23.74817175866259
hnb_18-12-12_23-12-12_04-03-12_04-03-12 1.1.4 0.2750262304359999 -21.50932484548274
hnb_23-12-12_23-12-12_01-03-12_01-03-12 2.2.3 0.1630269613500778 -15.99305954582061
hnb_35-11-03_35-11-03_02-01-03_02-01-03 2.2.3 0.1712736085456697 -20.704726007138134
hnc_11-03-12_11-03-12_11-03-12_11-03-12_06-12-12_06-12-12_06-12-12_06-12-12_06-12-12_06-12-12_06-12-12 1.1.3 0.403220224570433 -24.24110707164576
hnc_11-04-05_11-04-05_11-04-05_11-04-05_02-02-05_02-02-05_02-02-05_02-02-05_02-02-05_02-02-05_02-02-05 1.1.4 0.1227332136165 -19.05295662901516
hnc_12-02-05_12-02-05_12-02-05_12-02-05_01-04-05_01-04-05_01-04-05_01-04-05_01-04-05_01-04-05_01-04-05 1.1.5 0.1777011241152 -22.73255215983659
hnc_12-03-12_12-03-12_12-03-12_12-03-12_06-12-12_06-12-12_06-12-12_06-12-12_06-12-12_06-12-12_06-12-12 1.1.3 0.1472396440540863 -21.217990638161567
hnc_17-12-12_17-12-12_17-12-12_17-12-12_02-03-12_02-03-12_02-03-12_02-03-12_02-03-12_02-03-12_02-03-12 1.1.4 0.5748226391425 -28.80216350773815
hnc_18-12-12_18-12-12_18-12-12_18-12-12_02-03-12_02-03-12_02-03-12_02-03-12_02-03-12_02-03-12_02-03-12 1.1.4 0.1642706935839999 -20.920028859365345
hnc_23-12-12_23-12-12_23-12-12_23-12-12_01-03-12_01-03-12_01-03-12_01-03-12_01-03-12_01-03-12_01-03-12 1.1.3 0.1633909556099858 -16.32207306069981
hnc_35-11-03_35-11-03_35-11-03_35-11-03_01-01-03_01-01-03_01-01-03_01-01-03_01-01-03_01-01-03_01-01-03 1.1.3 0.1697088630875649 -18.377436560423675
hnc_35-11-03_35-11-03_35-11-03_35-11-03_02-01-03_02-01-03_02-01-03_02-01-03_02-01-03_02-01-03_02-01-03 1.1.3 0.1409438365780927 -17.884804365988604
hnd_11-03-09_11-03-09_11-03-09_11-03-09_11-03-09_11-03-09_02-05-09_02-05-09_02-05-09_02-05-09_02-05-09_02-05-09_02-05-09_02-05-09_02-05-09_02-05-09 1.1.5 0.1382938566624 -20.867960258073065
hnd_12-02-05_12-02-05_12-02-05_12-02-05_12-02-05_12-02-05_01-04-05_01-04-05_01-04-05_01-04-05_01-04-05_01-04-05_01-04-05_01-04-05_01-04-05_01-04-05 1.1.5 0.2061072260929999 -22.627128514604998
hnd_12-03-12_12-03-12_12-03-12_12-03-12_12-03-12_12-03-12_06-12-12_06-12-12_06-12-12_06-12-12_06-12-12_06-12-12_06-12-12_06-12-12_06-12-12_06-12-12 1.1.3 0.1398933257760713 -20.765378486236926
hnd_12-03-12_12-03-12_12-03-12_12-03-12_12-03-12_12-03-12_10-12-12_10-12-12_10-12-12_10-12-12_10-12-12_10-12-12_10-12-12_10-12-12_10-12-12_10-12-12 1.1.3 0.1732422277769159 -21.944466314167045
hnd_16-03-12_16-03-12_16-03-12_16-03-12_16-03-12_16-03-12_06-12-12_06-12-12_06-12-12_06-12-12_06-12-12_06-12-12_06-12-12_06-12-12_06-12-12_06-12-12 2.1.5 0.2083720057956 -23.549812879057157
hnd_23-12-12_23-12-12_23-12-12_23-12-12_23-12-12_23-12-12_01-03-12_01-03-12_01-03-12_01-03-12_01-03-12_01-03-12_01-03-12_01-03-12_01-03-12_01-03-12 1.1.3 0.1775830345259929 -17.012867405091637
hnd_23-12-12_23-12-12_23-12-12_23-12-12_23-12-12_23-12-12_03-03-12_03-03-12_03-03-12_03-03-12_03-03-12_03-03-12_03-03-12_03-03-12_03-03-12_03-03-12 1.1.3 0.1102379317360476 -13.307687468390473
hnd_23-12-12_23-12-12_23-12-12_23-12-12_23-12-12_23-12-12_04-03-12_04-03-12_04-03-12_04-03-12_04-03-12_04-03-12_04-03-12_04-03-12_04-03-12_04-03-12 1.1.3 0.1749130509489999 -19.07944152742061
hnd_35-11-03_35-11-03_35-11-03_35-11-03_35-11-03_35-11-03_01-01-03_01-01-03_01-01-03_01-01-03_01-01-03_01-01-03_01-01-03_01-01-03_01-01-03_01-01-03 1.1.2 0.0959374436739999 -13.581022667364149
hnd_35-11-03_35-11-03_35-11-03_35-11-03_35-11-03_35-11-03_02-01-03_02-01-03_02-01-03_02-01-03_02-01-03_02-01-03_02-01-03_02-01-03_02-01-03_02-01-03 1.1.3 0.1559812488548521 -17.970384041705007
hne_11-03-12_11-03-12_11-03-12_06-12-12_06-12-12_06-12-12_06-12-12_06-12-12 1.1.4 0.185313066165 -20.62376108028468
hne_17-10-08_17-10-08_17-10-08_01-02-08_01-02-08_01-02-08_01-02-08_01-02-08 1.1.4 0.17038164904725 -23.356689907990667
hne_17-12-12_17-12-12_17-12-12_02-03-12_02-03-12_02-03-12_02-03-12_02-03-12 1.2.4 0.7532345714801251 -30.64471608935459
hne_23-12-12_23-12-12_23-12-12_03-03-12_03-03-12_03-03-12_03-03-12_03-03-12 1.1.3 0.1218179569827141 -14.718497053683729
hne_23-12-12_23-12-12_23-12-12_04-03-12_04-03-12_04-03-12_04-03-12_04-03-12 1.1.3 0.2339496336011683 -23.219091678192367
hnf_11-02-05_11-02-05_11-02-05_11-02-05_01-04-05_01-04-05_01-04-05_01-04-05 1.1.5 0.2933697764119999 -23.244451055619702
hnf_11-03-12_11-03-12_11-03-12_11-03-12_06-12-12_06-12-12_06-12-12_06-12-12 1.1.4 0.1916215960769999 -21.544195793353865
hnf_12-03-12_12-03-12_12-03-12_12-03-12_06-12-12_06-12-12_06-12-12_06-12-12 1.1.3 0.1497405071568095 -21.589888300739776
hnf_12-03-12_12-03-12_12-03-12_12-03-12_10-12-12_10-12-12_10-12-12_10-12-12 1.1.3 0.1878445924262521 -22.3726897210794
hnf_17-10-08_17-10-08_17-10-08_17-10-08_01-02-08_01-02-08_01-02-08_01-02-08 1.1.4 0.10908428634825 -19.997153278835487
hnf_17-12-12_17-12-12_17-12-12_17-12-12_01-03-12_01-03-12_01-03-12_01-03-12 1.1.4 0.074650937292 -17.53576120133554
hnf_17-12-12_17-12-12_17-12-12_17-12-12_02-03-12_02-03-12_02-03-12_02-03-12 1.1.3 1.0447689623340708 -31.3574629176069
hnf_23-10-08_23-10-08_23-10-08_23-10-08_02-02-08_02-02-08_02-02-08_02-02-08 1.1.3 0.1411210680141911 -17.160192084414568
hnf_35-11-03_35-11-03_35-11-03_35-11-03_02-01-03_02-01-03_02-01-03_02-01-03 2.1.3 0.1636273980392043 -18.547788961375527
htb-a_17-12-12_17-12-12_01-03-12_01-03-12_01-03-12_01-03-12_01-03-12 1.1.4 0.146936175867 -21.289817716488304
htb-a_23-12-12_23-12-12_03-03-12_03-03-12_03-03-12_03-03-12_03-03-12 1.1.3 0.1835613263640714 -19.00245293696931
htb-a_35-11-03_35-11-03_02-01-03_02-01-03_02-01-03_02-01-03_02-01-03 1.1.3 0.1576803687993391 -18.16796558674065
htb_31-02-05_02-04-05_01-04-05 1.1.3 0.0790544827456782 -12.79611951341274
htb_31-02-08_07-10-08_06-10-08 2.2.3 0.2004815369286753 -18.48754934041355
iab_25-12-12_25-12-12_12-03-12_None_None 1.1.1 0.099926584518 -12.817540613244622
iab_31-01-02_31-01-02_33-11-02_None_None 2.2.1 0.13150942784375 -14.666687130927516
iab_31-03-12_31-03-12_17-12-12_None_None 2.2.1 0.2173223658637499 -19.06174444282436
iab_31-06-10_31-06-10_34-11-10_None_None 2.2.1 0.174865663896 -16.66880059887213
iab_31-07-11_31-07-11_36-11-11_None_None 2.2.1 0.0849339916039999 -13.446600200046278
icf_30-03-12_30-03-12_06-12-12_06-12-12_06-12-12_06-12-12 1.1.1 0.149428148022 -15.340547887079309
ict_30-03-12_06-12-12_06-12-12_07-12-12 1.1.1 0.1436039781659999 -18.440683269274544
ict_30-03-12_06-12-12_07-12-12_06-12-12 1.1.1 0.138285312308 -16.039176041911478
ict_30-03-12_06-12-12_07-12-12_07-12-12 1.1.1 0.130269574236 -16.58605202895385
ict_30-03-12_07-12-12_06-12-12_06-12-12 1.1.1 0.151981169942 -18.93422111940932
ict_30-03-12_07-12-12_06-12-12_07-12-12 1.1.1 0.153514287378 -18.974233599243437
ict_30-03-12_07-12-12_07-12-12_06-12-12 1.1.1 0.162734364698 -17.022963095681668
ict_30-03-12_07-12-12_07-12-12_07-12-12 1.1.1 0.167141594046 -18.54371787512749
[...]
uox_30-03-12_07-12-12_06-12-12_06-12-12 1.1.1 0.113100893856 -14.495386482723193
uox_30-03-12_07-12-12_07-12-12_06-12-12 1.1.1 0.091797394773 -13.92440867147448
uox_30-03-12_07-12-12_07-12-12_07-12-12 1.1.1 0.105927674611 -14.958980403515431
uoy_30-03-12_06-12-12_06-12-12_06-12-12_06-12-12 2.2.1 0.101477324312 -15.080608185635718
uoy_30-03-12_07-12-12_07-12-12_07-12-12_07-12-12 2.2.1 0.09908545629675 -14.66977312137062
uoz_30-03-12_06-12-12_06-12-12_06-12-12 1.1.2 0.1984941068959999 -20.17632055310347
uoz_30-03-12_06-12-12_06-12-12_07-12-12 1.1.2 0.1996522821119999 -19.95301405298096
uoz_30-03-12_07-12-12_06-12-12_07-12-12 1.1.2 0.169073167774 -20.74722103627633
uoz_30-03-12_07-12-12_07-12-12_06-12-12 1.1.2 0.15133218192 -19.067670936094547
uoz_30-03-12_08-12-12_08-12-12_08-12-12 1.1.2 0.1039415810355 -14.544478626742658
uoz_30-03-12_09-12-12_09-12-12_09-12-12 1.1.2 0.1460912385974999 -18.918502744090134
upa_30-03-12_08-12-12_08-12-12_08-12-12 2.2.1 0.2878679472912499 -21.06603987010868
upb_30-03-12_06-12-12_06-12-12_06-12-12 2.2.1 0.160579502208 -18.893237696736985
upb_30-03-12_06-12-12_06-12-12_07-12-12 1.2.1 0.14577979595 -16.336313091441124
upb_30-03-12_06-12-12_07-12-12_06-12-12 2.2.1 0.1887669848159999 -19.717861270623512
upb_30-03-12_06-12-12_07-12-12_07-12-12 2.2.1 0.160256468841 -19.06204821530221
upb_30-03-12_07-12-12_06-12-12_06-12-12 1.2.1 0.1648182021374999 -16.902788892809838
upb_30-03-12_07-12-12_06-12-12_07-12-12 2.2.1 0.1449603005759999 -16.745056386934422
upb_30-03-12_07-12-12_07-12-12_06-12-12 2.2.1 0.1724442585424999 -19.46373110697172
upb_30-03-12_07-12-12_07-12-12_07-12-12 1.2.1 0.1414058430015 -18.980665683892084
upb_30-03-12_08-12-12_08-12-12_08-12-12 1.1.1 0.0973727822339999 -14.526565774864215
usm-d_30-04-05_30-04-05_11-04-05_11-04-05_01-02-05_01-02-05_01-02-05_01-02-05_01-02-05 1.1.3 0.3231398460175371 -23.999843541323266
usm-d_30-04-05_30-04-05_11-04-05_11-04-05_02-02-05_02-02-05_02-02-05_02-02-05_02-02-05 1.1.3 0.3860782800338624 -25.73765898418687
usm-d_30-04-05_30-04-05_11-04-05_11-04-05_04-02-05_04-02-05_04-02-05_04-02-05_04-02-05 1.1.3 0.2994711838720567 -25.863929996725773
usm-d_30-04-05_30-04-05_12-04-05_12-04-05_03-02-05_03-02-05_03-02-05_03-02-05_03-02-05 1.1.3 0.2172598170959132 -21.44217818738755
utb_11-03-12_06-12-12_06-12-12 1.1.2 0.209232908748 -18.50797380189194
utb_11-03-12_06-12-12_07-12-12 1.1.1 0.2559006921239999 -23.204568799423285
utb_11-03-12_07-12-12_06-12-12 1.1.1 0.1895090908839999 -19.510897731365493
utb_11-03-12_07-12-12_07-12-12 2.1.1 0.182494831104 -20.267262414188867
utb_11-04-05_01-02-05_02-02-05 1.1.2 0.190932568659 -21.15768942778723
utb_11-04-05_03-02-05_04-02-05 1.1.1 0.1464986705489999 -20.656520447622743
utb_12-03-09_02-05-09_01-05-09 1.1.2 0.1593632087925 -20.301746596444527
utb_23-08-01_01-01-01_01-01-01 1.3.1 0.0885650378254408 -13.76984740176877
utb_23-08-01_02-01-01_01-01-01 3.1.1 0.0969831208769999 -13.193110154803016
utb_23-08-01_02-01-01_02-01-01 3.1.1 0.1002014581935649 -15.028961015319243
utb_23-10-08_02-02-08_02-02-08 3.1.1 0.1520661101151127 -18.501050140648765
utc_11-03-12_08-12-12_08-12-12_08-12-12 1.1.1 0.111946216885 -13.58393271775032
utc_17-12-12_02-03-12_02-03-12_02-03-12 1.1.1 0.3206198509359999 -23.92903336331387
utc_36-11-11_02-07-11_01-07-11_02-07-11 1.1.1 0.069554384416 -12.817191835631045
utj_12-03-12_06-12-12_06-12-12_06-12-12 1.1.1 0.1097263606919999 -11.995181436567345
utj_17-12-12_02-03-12_02-03-12_02-03-12 1.1.1 0.1078373468579999 -14.202042292394546
utj_34-11-10_01-06-10_01-06-10_02-06-10 2.2.2 0.06642319597625 -10.79868430920216
utk_12-03-12_06-12-12_06-12-12_06-12-12 1.1.2 0.12660733926 -14.308387803338
utk_12-03-12_09-12-12_09-12-12_09-12-12 1.1.2 0.167435694097 -17.29230131368422
utk_17-12-12_01-03-12_01-03-12_01-03-12 1.1.2 0.110399273425 -14.714325284175594
utk_17-12-12_02-03-12_02-03-12_02-03-12 1.1.2 0.1202324441494999 -12.944578625579211
utk_34-11-10_02-06-10_02-06-10_01-06-10 2.2.2 0.0626992196054999 -14.774373245364682
utk_34-11-10_02-06-10_02-06-10_02-06-10 2.2.2 0.10047430728975 -14.752003498001878
utk_35-11-03_01-01-03_01-01-03_01-01-03 2.2.2 0.097669166484 -15.905899072584656
utk_35-11-03_02-01-03_02-01-03_01-01-03 3.3.2 0.2474289671159538 -22.201509139074783
utm_12-03-12_06-12-12_06-12-12_06-12-12 2.1.1 0.201164994602 -19.30737884481196
utm_12-03-12_07-12-12_07-12-12_07-12-12 2.1.1 0.186651831086 -20.65122790220945
utm_12-03-12_09-12-12_09-12-12_09-12-12 2.1.1 0.2482195046084999 -22.224037621284232
utm_17-12-12_01-03-12_01-03-12_01-03-12 1.1.1 0.154558982844 -15.47442088810704
utm_17-12-12_02-03-12_02-03-12_02-03-12 1.1.1 0.1332472964049999 -13.931780624660735
utm_34-11-10_01-06-10_02-06-10_02-06-10 1.1.1 0.065065227865 -11.020266756293376
utm_34-11-10_02-06-10_02-06-10_02-06-10 1.1.1 0.06767699458 -11.242636391501996
utm_35-11-03_01-01-03_02-01-03_02-01-03 1.3.1 0.1514757100306143 -18.29733539465605
utm_35-11-03_02-01-03_01-01-03_02-01-03 3.1.1 0.1646110335249122 -18.68982524626408
utn_11-03-12_06-12-12_06-12-12_06-12-12 1.1.2 0.133267694391 -12.71192823790438
utn_11-03-12_07-12-12_07-12-12_07-12-12 1.1.2 0.147920615055 -15.32233923931738
utn_11-03-12_09-12-12_09-12-12_09-12-12 1.1.1 0.126945226995 -16.148856412333256
utn_12-03-12_06-12-12_06-12-12_06-12-12 1.1.2 0.2134740414745 -19.52721262802731
utn_12-03-12_07-12-12_07-12-12_07-12-12 1.1.1 0.163199879848 -19.89697522035728
utn_12-03-12_08-12-12_08-12-12_08-12-12 1.1.1 0.155631641694 -19.41983059121231
utn_12-03-12_09-12-12_09-12-12_09-12-12 1.1.1 0.194428831821 -21.881159977752933
utn_17-10-08_02-02-08_02-02-08_02-02-08 1.1.2 0.1044886058725 -15.465789294276574
utn_17-12-12_01-03-12_01-03-12_01-03-12 1.1.2 0.2022672403035 -16.382613822258225
utn_17-12-12_02-03-12_02-03-12_02-03-12 1.1.1 0.193363518504 -23.323222971851045
utn_34-11-10_01-06-10_02-06-10_01-06-10 1.1.2 0.0739557233819999 -13.307546978046611
utn_34-11-10_02-06-10_02-06-10_01-06-10 1.1.2 0.100555352155 -16.144865271329415
utn_34-11-10_02-06-10_02-06-10_02-06-10 1.1.2 0.1150508907859999 -18.36248359345109
utn_35-11-03_01-01-03_01-01-03_01-01-03 1.1.2 0.1558550529 -17.512223683127637
utn_35-11-03_01-01-03_01-01-03_02-01-03 1.1.2 0.1020813772 -16.646467914836162
utn_35-11-03_01-01-03_02-01-03_01-01-03 1.1.2 0.1438419406 -17.371536588088937
utn_35-11-03_01-01-03_02-01-03_02-01-03 1.1.2 0.0980958807269999 -16.97555002703008
utn_35-11-03_02-01-03_01-01-03_01-01-03 1.1.2 0.15683411588 -18.15848624437601
utn_35-11-03_02-01-03_01-01-03_02-01-03 1.1.2 0.0943229622375 -16.766948403683514
utn_35-11-03_02-01-03_02-01-03_01-01-03 1.1.2 0.1341482129599999 -19.256757396771675
utn_35-11-03_02-01-03_02-01-03_02-01-03 1.1.2 0.074167549658 -15.49530644640023
utn_36-11-11_02-07-11_01-07-11_01-07-11 1.1.2 0.1036624113604999 -19.50013138329512
uto_12-03-12_06-12-12_06-12-12_06-12-12 1.1.1 0.120276972297 -13.614008576952957
uto_17-12-12_01-03-12_01-03-12_01-03-12 1.1.1 0.132479128152 -13.850116553463268
uto_17-12-12_02-03-12_02-03-12_02-03-12 1.1.1 0.1208521990649999 -16.33740821862413
uto_33-11-02_01-01-02_01-01-02_01-01-02 2.2.1 0.089538031428 -14.47774089931784
uto_33-11-02_01-01-02_02-01-02_01-01-02 2.2.1 0.074209172949 -11.249105892554596
uto_33-11-02_01-01-02_02-01-02_02-01-02 2.2.1 0.06595003873125 -11.229473650081266
uto_33-11-02_02-01-02_01-01-02_01-01-02 2.2.1 0.0945404532089999 -14.656398419827193
uto_33-11-02_02-01-02_01-01-02_02-01-02 1.2.1 0.089105830108 -15.348744186509425
uto_33-11-02_02-01-02_02-01-02_01-01-02 2.2.1 0.07415715466225 -11.160822250403822
uto_33-11-02_02-01-02_02-01-02_02-01-02 2.2.1 0.05784781296 -11.470803888536103
uto_34-11-10_01-06-10_01-06-10_01-06-10 2.2.1 0.0678831270969999 -10.205626442906484
uto_34-11-10_01-06-10_01-06-10_02-06-10 2.2.1 0.07292856055725 -11.314415011311716
uto_34-11-10_01-06-10_02-06-10_01-06-10 2.2.1 0.065738420784 -11.223855988641118
uto_34-11-10_01-06-10_02-06-10_02-06-10 1.1.1 0.066248232008 -11.524488173212688
uto_34-11-10_02-06-10_01-06-10_01-06-10 2.2.1 0.0698470720829999 -10.38553611836532
uto_34-11-10_02-06-10_01-06-10_02-06-10 2.2.1 0.07600801618775 -12.72563902384049
uto_34-11-10_02-06-10_02-06-10_01-06-10 2.2.1 0.0612204644002499 -13.050620033933471
uto_34-11-10_02-06-10_02-06-10_02-06-10 1.1.1 0.066635810048 -12.55295368152638
utp_17-10-08_01-02-08_01-02-08_01-02-08 1.1.9 0.0987422553775562 -19.009925610321417
utp_17-12-12_02-03-12_02-03-12_02-03-12 1.1.6 0.5325760816010191 -28.758804191106048
utp_34-11-10_02-06-10_02-06-10_01-06-10 1.2.3 0.07176902845272 -11.719193308557994
utp_34-11-10_02-06-10_02-06-10_02-06-10 1.2.3 0.0555300360344458 -11.493834797357692
utp_35-11-03_01-01-03_02-01-03_02-01-03 1.1.4 0.1299560813049999 -17.11602022775399
utq_12-03-12_06-12-12_06-12-12_06-12-12 1.2.1 0.1234421557785 -13.459657900996636
utq_12-03-12_07-12-12_07-12-12_07-12-12 1.2.1 0.122721169492 -13.251650439269476
utq_12-03-12_09-12-12_09-12-12_09-12-12 1.3.1 0.2160755129991304 -19.56677123987884
utq_17-12-12_02-03-12_02-03-12_02-03-12 1.2.1 0.1205423216314999 -13.539774672511385
utq_33-11-02_01-01-02_01-01-02_02-01-02 1.2.1 0.109788913404 -11.808056187602745
utq_33-11-02_01-01-02_02-01-02_01-01-02 1.2.1 0.092168470512 -11.77311146480494
utq_35-11-03_01-01-03_01-01-03_01-01-03 2.2.1 0.1498806092055 -16.968341165931054
utq_35-11-03_01-01-03_01-01-03_02-01-03 2.2.1 0.1661142410799999 -16.553528686872287
utq_35-11-03_01-01-03_02-01-03_01-01-03 2.2.1 0.12876173715 -18.60514166464362
utq_35-11-03_01-01-03_02-01-03_02-01-03 2.2.1 0.1370827051185 -18.77891354255577
utq_35-11-03_02-01-03_01-01-03_01-01-03 2.2.1 0.1521940532799999 -19.225910933234942
utq_35-11-03_02-01-03_01-01-03_02-01-03 2.2.1 0.149239886918 -18.1255736962644
utq_35-11-03_04-01-03_04-01-03_03-01-03 3.1.1 0.112503931584811 -17.98446265433846
var_12-03-12_12-03-12_12-03-12_06-12-12_06-12-12_06-12-12_06-12-12_06-12-12 1.1.3 0.1746243600939809 -20.173086922594837
var_18-12-12_18-12-12_18-12-12_01-03-12_01-03-12_01-03-12_01-03-12_01-03-12 3.1.6 0.2858524593683541 -24.30388941121149
var_23-12-12_23-12-12_23-12-12_01-03-12_01-03-12_01-03-12_01-03-12_01-03-12 1.1.3 0.2211054189859389 -19.241988899920287
var_35-11-03_35-11-03_35-11-03_01-01-03_01-01-03_01-01-03_01-01-03_01-01-03 1.1.3 0.3211306918174491 -22.803568277827747
vbb_31-03-12_06-12-12_06-12-12_06-12-12_06-12-12 6.1.1 0.1093052415108763 -17.016597176714626
wiw_12-03-12_06-12-12_06-12-12_06-12-12 1.1.1 0.13129649988 -14.881123177601756
wiw_12-03-12_07-12-12_07-12-12_07-12-12 1.1.1 0.13135948324 -15.290758669309485
wiw_17-12-12_01-03-12_01-03-12_01-03-12 1.1.1 0.1920596884319999 -14.017143511788165
wiw_17-12-12_02-03-12_02-03-12_02-03-12 1.1.1 0.1718786830799999 -19.978138044972088
wix_11-03-12_06-12-12_06-12-12_06-12-12 2.1.1 0.1556104044219999 -16.86068210508026
wix_12-03-12_06-12-12_06-12-12_06-12-12 1.1.2 0.1209803463824999 -12.706398936718426
wix_17-12-12_02-03-12_02-03-12_02-03-12 1.1.2 0.1222982937299999 -14.378812511024348
wix_34-11-10_02-06-10_02-06-10_02-06-10 2.2.2 0.079824147415 -15.614137635897748
wix_34-11-10_04-06-10_03-06-10_03-06-10 2.2.1 0.084503395101 -11.175437850592193
wix_35-11-03_01-01-03_02-01-03_01-01-03 1.3.2 0.1810655869470007 -19.527560238255337
wix_35-11-03_02-01-03_02-01-03_01-01-03 1.3.2 0.121851248704429 -18.515256523791084
wix_35-11-03_04-01-03_04-01-03_03-01-03 1.3.1 0.1134038839847555 -15.579296382846197
wiy_12-03-12_06-12-12_06-12-12_06-12-12 1.1.6 0.3313673820255238 -25.165017205208247
wiy_35-11-03_01-01-03_01-01-03_01-01-03 1.1.4 0.181484550488 -17.92050331698432
wiy_35-11-03_03-01-03_04-01-03_04-01-03 2.2.1 0.13500466665 -18.92535732037516
wiz_11-03-12_06-12-12_06-12-12_06-12-12 2.2.1 0.1056678759757499 -12.42565931036198
wiz_11-03-12_07-12-12_07-12-12_07-12-12 2.2.1 0.10502957733125 -15.465330518147884
wiz_12-03-12_06-12-12_06-12-12_06-12-12 2.2.1 0.1209803463824999 -15.250583952367124
wiz_12-03-12_07-12-12_07-12-12_07-12-12 2.2.1 0.129360534582 -15.740442728699064
wiz_17-10-08_02-02-08_02-02-08_02-02-08 2.2.1 0.0847807904587499 -13.647842282074754
wiz_17-12-12_01-03-12_01-03-12_01-03-12 2.2.1 0.26338112370075 -20.580436176713143
wiz_17-12-12_02-03-12_02-03-12_02-03-12 2.2.1 0.1185797645287499 -14.53533811310002
wiz_33-11-02_01-01-02_01-01-02_01-01-02 2.2.1 0.23555595712 -20.131400869145644
wiz_33-11-02_01-01-02_01-01-02_02-01-02 3.3.1 0.0698787728845289 -13.30776860532152
wiz_33-11-02_01-01-02_02-01-02_01-01-02 3.3.1 0.0714852151083612 -12.29887854921039
wiz_33-11-02_01-01-02_02-01-02_02-01-02 3.3.1 0.0753833446881836 -13.082149154417522
wiz_33-11-02_02-01-02_01-01-02_01-01-02 2.2.1 0.2087344772782499 -19.864026836413988
wiz_33-11-02_02-01-02_02-01-02_01-01-02 3.3.1 0.1069959046496241 -18.52730916460675
wiz_33-11-02_02-01-02_02-01-02_02-01-02 3.3.1 0.0768238789365784 -15.2514786533075
wiz_34-11-10_01-06-10_01-06-10_01-06-10 3.3.1 0.0871980745026804 -12.002843084648903
wiz_34-11-10_01-06-10_02-06-10_01-06-10 3.3.1 0.0819695290238843 -12.373250437357218
wiz_34-11-10_01-06-10_02-06-10_02-06-10 3.3.1 0.0750107279535159 -12.945117207637235
wiz_34-11-10_02-06-10_01-06-10_01-06-10 2.2.1 0.1479114467234999 -14.82467697905552
wiz_34-11-10_02-06-10_01-06-10_02-06-10 3.3.1 0.0946397636380111 -13.697402833749065
wiz_34-11-10_02-06-10_02-06-10_01-06-10 2.2.1 0.134862472359 -15.52842707864969
wiz_34-11-10_02-06-10_02-06-10_02-06-10 3.3.1 0.1098253938040577 -16.5653451862741
wiz_36-11-11_01-07-11_01-07-11_02-07-11 2.2.1 0.058581848336 -12.414632868234063
wiz_36-11-11_02-07-11_01-07-11_01-07-11 2.2.1 0.04851309315325 -11.34301064051482
wiz_36-11-11_02-07-11_01-07-11_02-07-11 2.2.1 0.073506338076 -12.834921316529549
wiz_36-11-11_02-07-11_02-07-11_02-07-11 2.2.1 0.061200128902 -12.90136539231591
wje_30-03-12_06-12-12_06-12-12_06-12-12_06-12-12 1.1.1 0.10407930694 -13.853353800068232
wje_30-03-12_07-12-12_07-12-12_07-12-12_07-12-12 1.1.1 0.095959998667 -13.693093721123931
wje_30-03-12_09-12-12_09-12-12_09-12-12_09-12-12 1.1.1 0.1225996868239999 -19.41631425375162
wut_30-03-12_30-03-12_06-12-12_06-12-12_06-12-12 1.1.1 0.18912696914 -18.903075892137576
wut_30-03-12_30-03-12_06-12-12_06-12-12_07-12-12 1.1.1 0.182790956084 -19.403677643517963
wut_30-03-12_30-03-12_06-12-12_07-12-12_06-12-12 1.1.1 0.132095281934 -15.849161655761982
wut_30-03-12_30-03-12_06-12-12_07-12-12_07-12-12 1.1.1 0.1329666748139999 -15.21041375728954
wut_30-03-12_30-03-12_07-12-12_06-12-12_06-12-12 1.1.1 0.1775566451969999 -18.043614247646516
wut_30-03-12_30-03-12_07-12-12_06-12-12_07-12-12 1.1.1 0.187668154959 -17.855391962494668
wut_30-03-12_30-03-12_07-12-12_07-12-12_06-12-12 1.1.1 0.12884999322 -16.79335447564075
wut_30-03-12_30-03-12_07-12-12_07-12-12_07-12-12 1.1.1 0.142723603616 -17.66070337440759
wut_30-03-12_30-03-12_08-12-12_08-12-12_08-12-12 1.1.1 0.1174655785299999 -14.778300430211187
wut_30-03-12_30-03-12_08-12-12_09-12-12_09-12-12 1.1.1 0.120309170769 -15.990156682760189
wut_30-03-12_30-03-12_09-12-12_08-12-12_08-12-12 1.1.1 0.114633248892 -14.525393876621294
wut_30-03-12_30-03-12_09-12-12_08-12-12_09-12-12 1.1.1 0.152638947936 -15.927168149250631
wut_30-03-12_30-03-12_09-12-12_09-12-12_08-12-12 1.1.1 0.1183865691059999 -15.941830298266394
xca_30-03-12_12-03-12_06-12-12_06-12-12_06-12-12_06-12-12 1.2.1 0.097429949995 -13.743780557049927
yac_31-01-02_31-01-02_31-01-02_33-11-02_33-11-02_33-11-02_33-11-02_33-11-02_None_None_None_None_None_None_None 2.2.1 0.126249050664 -15.773436893208263
yac_31-03-12_31-03-12_31-03-12_17-12-12_17-12-12_17-12-12_17-12-12_17-12-12_None_None_None_None_None_None_None 1.1.1 0.120636088908 -14.444025753540274
yac_31-06-10_31-06-10_31-06-10_34-11-10_34-11-10_34-11-10_34-11-10_34-11-10_None_None_None_None_None_None_None 2.2.1 0.151020346092 -16.447858325767434
yao_31-01-02_31-01-02_33-11-02_33-11-02_33-11-02_None_None_None_None 2.2.1 0.1353351566537499 -16.502229884493932
yao_31-03-12_31-03-12_17-12-12_17-12-12_17-12-12_None_None_None_None 1.1.1 0.126549622571 -13.531927567858162
yao_31-06-10_31-06-10_34-11-10_34-11-10_34-11-10_None_None_None_None 2.2.1 0.161859126912 -17.213601942772915
yav-d-a_15-02-05_15-02-05_15-02-05_05-04-05_05-04-05_05-04-05_05-04-05 1.1.1 0.624528216576 -2.969043466170262
yav-d-a_15-02-06_15-02-06_15-02-06_05-02-06_05-02-06_05-02-06_05-02-06 1.1.1 0.6199068777929999 -2.592847890558052
yav-d-a_15-03-09_15-03-09_15-03-09_05-05-09_05-05-09_05-05-09_05-05-09 1.1.1 0.6619862267830001 -3.199685245006224
yav-d-a_15-04-05_15-04-05_15-04-05_05-02-05_05-02-05_05-02-05_05-02-05 1.1.1 0.62648598528 -3.155991418801689
yav-d-a_15-05-09_15-05-09_15-05-09_05-03-09_05-03-09_05-03-09_05-03-09 1.1.1 0.655606819112 -2.9835090117608227
yug_30-03-12_30-03-12_06-12-12_06-12-12_06-12-12_06-12-12_06-12-12_06-12-12 1.1.2 0.099804621164 -14.750098672600028
zni_30-02-05_01-04-05_01-04-05_01-04-05 1.1.1 0.114573375576 -12.457203079121395
zni_30-02-08_06-10-08_06-10-08_07-10-08 1.1.1 0.091162786932 -16.535758914430442
zni_30-02-08_06-10-08_07-10-08_06-10-08 1.1.1 0.0824402362019999 -13.4621622936093
zni_30-02-08_08-10-08_09-10-08_08-10-08 1.1.1 0.142797655616 -17.29296836206668
zni_30-02-08_09-10-08_09-10-08_08-10-08 1.1.1 0.0903983312699999 -13.620547093946264
zni_30-03-09_02-05-09_02-05-09_02-05-09 1.1.1 0.1499149861559999 -18.7251510567445
zni_30-03-12_06-12-12_07-12-12_06-12-12 1.1.1 0.289383773784 -22.226150126829527
zni_30-03-12_07-12-12_06-12-12_06-12-12 1.1.1 0.3220210415040001 -24.55834243423835
zni_30-03-12_07-12-12_06-12-12_07-12-12 1.1.1 0.28005984846 -22.899468124763853
zni_30-03-12_07-12-12_07-12-12_06-12-12 1.1.1 0.3000094132799999 -24.229835313531566
znp_30-03-12_30-03-12_30-03-12_30-03-12_06-12-12_06-12-12_06-12-12_06-12-12_06-12-12_06-12-12 2.1.1 0.0940430880565 -11.878996448923028
zra-d_30-03-12_30-03-12_30-03-12_30-03-12_30-03-12_06-12-12_06-12-12_06-12-12_06-12-12_06-12-12_06-12-12_06-12-12_06-12-12 1.1.1 0.1034845681359999 -12.501281602900418
zsn_30-03-12_30-03-12_30-03-12_06-12-12_06-12-12_06-12-12_06-12-12_06-12-12 1.1.1 0.117460932118 -13.944873717344556
zxd_11-03-12_11-03-12_06-12-12_06-12-12_06-12-12 1.1.2 0.7010353864709999 -26.20120999305987
zxd_11-03-12_12-03-12_06-12-12_06-12-12_06-12-12 1.1.2 0.467908643748 -26.33629709825022
zxd_12-03-12_11-03-12_06-12-12_06-12-12_06-12-12 1.1.2 0.6397652171925 -25.577626601363395
zxd_12-03-12_11-03-12_07-12-12_07-12-12_07-12-12 1.1.2 0.4859543806490001 -26.019610579753945
zxd_12-03-12_12-03-12_06-12-12_06-12-12_06-12-12 1.1.2 0.4142873487284999 -25.56691937160489
zxd_12-03-12_12-03-12_07-12-12_07-12-12_07-12-12 1.1.2 0.4497634480499999 -24.875929583401422
zxd_23-10-08_23-10-08_02-02-08_02-02-08_02-02-08 1.1.2 0.099203914188 -13.388592637762583
zxd_33-11-02_33-11-02_01-01-02_02-01-02_02-01-02 1.1.1 0.065781779409 -10.889802349944173
zxd_34-11-10_34-11-10_02-06-10_02-06-10_02-06-10 1.1.1 0.0631651949109999 -12.443522113643684
zxd_35-11-03_35-11-03_01-01-03_01-01-03_01-01-03 1.1.2 0.1489281616599999 -17.067905183537615
zxd_35-11-03_35-11-03_01-01-03_01-01-03_02-01-03 1.1.2 0.1268564706 -16.35611752344897
zxd_35-11-03_35-11-03_01-01-03_02-01-03_01-01-03 1.1.2 0.163363338084 -16.827260326647515
zxd_35-11-03_35-11-03_01-01-03_02-01-03_02-01-03 1.1.2 0.1077913756074999 -16.455541464061078
zxd_35-11-03_35-11-03_02-01-03_01-01-03_01-01-03 1.1.2 0.17321599077 -17.31681175259719
zxd_35-11-03_35-11-03_02-01-03_02-01-03_01-01-03 1.1.2 0.1418325817125 -16.32955563170822
zxd_35-11-03_35-11-03_02-01-03_02-01-03_02-01-03 1.1.2 0.124122325535 -15.938151834142154
zxd_35-11-03_35-11-03_03-01-03_04-01-03_03-01-03 1.1.2 0.1109230574575 -14.783525828236735
zxd_35-11-03_35-11-03_03-01-03_04-01-03_04-01-03 1.1.2 0.1228358734854999 -15.636788527670657
zxd_35-11-03_35-11-03_04-01-03_03-01-03_04-01-03 1.1.2 0.1319430539789999 -14.783167718409896
zxd_35-11-03_35-11-03_04-01-03_04-01-03_03-01-03 1.1.2 0.1263574737019999 -15.065543484088634
zxd_35-11-03_35-11-03_04-01-03_04-01-03_04-01-03 1.1.2 0.12791727702 -16.011606559404296
zxd_36-11-11_36-11-11_02-07-11_02-07-11_01-07-11 1.1.2 0.1039154670575 -18.286285188348305
