data_co2_ads
_audit_aif_version 63df4e8
_exptl_method GCMC
_exptl_adsorptive co2
_exptl_temperature 298
_adsorp_pressure 1000000
_simltn_code RASPA 2.0.41
_simltn_date 2023-06-23T13:35:26.431001088
_simltn_forcefield_adsorptive uff
_simltn_forcefield_adsorbent mm3
_units_temperature K
_units_pressure Pa
_units_loading mol/kg
_units_enthalpy kJ/mol

loop_
_adsnt_material_id
_simltn_size
_adsorp_amount_absolute
_adsorp_enthalpy
abr_30-03-12_30-03-12_30-03-12_06-12-12_06-12-12_06-12-12 1.1.1 13.320452032835998 -15.18957860830823
abr_30-03-12_30-03-12_30-03-12_06-12-12_06-12-12_07-12-12 1.1.1 13.18039021002 -15.77153242904108
acs-f_11-03-12_07-12-12_07-12-12_07-12-12 2.2.1 12.8611331300375 -18.275528226955554
acs-f_17-12-12_04-03-12_04-03-12_04-03-12 2.2.1 14.854154268905996 -16.150271068066
acs-f_23-12-12_01-03-12_01-03-12_01-03-12 2.2.1 12.696094749293998 -13.527847888686576
acs-f_34-11-10_03-06-10_03-06-10_03-06-10 2.2.1 12.390913174615 -16.500276042289965
acs-f_34-11-10_04-06-10_04-06-10_03-06-10 2.2.1 14.728655438342996 -18.15093956835245
acs-g_11-03-12_06-12-12_06-12-12_06-12-12 1.1.7 9.637330941762732 -19.452700920049203
afi_30-03-12_06-12-12_06-12-12_06-12-12_06-12-12 1.1.1 13.584579826532996 -14.823126916953958
afw_30-03-12_06-12-12_06-12-12 2.1.1 13.009913371874998 -15.655446636795878
aht_30-03-12_30-03-12_06-12-12_06-12-12_06-12-12_06-12-12_06-12-12_06-12-12 1.1.1 13.158598091700004 -14.567267167096892
ana-b_30-03-09_30-05-09_None_None_None_None 1.1.1 18.025282678612 -18.48469641029345
ana-b_30-03-12_30-03-12_06-12-12_06-12-12_06-12-12_06-12-12 1.1.1 13.503918381819 -15.112025365526708
ana-b_30-05-09_30-03-09_None_None_None_None 1.1.1 19.107308283844 -19.23877723770036
ana_30-03-12_06-12-12 1.1.1 13.472694589695005 -14.646019974663602
apd_30-03-12_30-03-12_06-12-12_06-12-12_06-12-12_06-12-12_06-12-12_06-12-12_06-12-12 1.1.1 13.342037876164 -15.451831089829817
asn_11-02-04_11-02-04_11-02-04_11-02-04_30-03-04_30-03-04_None_None_None_None_None_None_None_None 2.2.2 14.992771205904376 -18.288906426671566
asn_11-02-05_11-02-05_11-02-05_11-02-05_30-04-05_30-04-05_None_None_None_None_None_None_None_None 1.1.1 20.696754909615 -17.240121851571136
asn_11-03-09_11-03-09_11-03-09_11-03-09_30-05-09_30-05-09_None_None_None_None_None_None_None_None 1.1.1 14.106610359352 -15.02610167785076
asn_11-04-05_11-04-05_11-04-05_11-04-05_30-02-05_30-02-05_None_None_None_None_None_None_None_None 1.1.1 19.256160609205 -16.150813801931978
asn_11-05-09_11-05-09_11-05-09_11-05-09_30-03-09_30-03-09_None_None_None_None_None_None_None_None 1.1.1 16.559577685168 -14.62063682313232
asn_12-02-05_12-02-05_12-02-05_12-02-05_30-04-05_30-04-05_None_None_None_None_None_None_None_None 1.1.1 17.688099563361003 -16.91493113618477
asn_12-04-05_12-04-05_12-04-05_12-04-05_30-02-05_30-02-05_None_None_None_None_None_None_None_None 1.1.1 11.812302821916004 -14.499853973210838
asn_17-08-01_17-08-01_17-08-01_17-08-01_30-01-01_30-01-01_None_None_None_None_None_None_None_None 2.2.2 15.690425790915004 -21.56909065548116
asn_17-10-08_17-10-08_17-10-08_17-10-08_30-02-08_30-02-08_None_None_None_None_None_None_None_None 2.2.2 17.58077420545625 -23.22040252815127
asn_17-12-12_17-12-12_17-12-12_17-12-12_28-03-12_28-03-12_None_None_None_None_None_None_None_None 1.1.1 20.47273701679 -18.439869611735027
asn_17-12-12_17-12-12_17-12-12_17-12-12_29-03-12_29-03-12_None_None_None_None_None_None_None_None 1.1.1 19.080543846238 -17.214690793630275
asn_17-12-12_17-12-12_17-12-12_17-12-12_30-03-12_30-03-12_None_None_None_None_None_None_None_None 2.2.2 18.2832155966555 -27.645683739347422
asn_18-12-12_18-12-12_18-12-12_18-12-12_30-03-12_30-03-12_None_None_None_None_None_None_None_None 1.1.1 19.598844831514 -18.22842443592186
asn_23-12-12_23-12-12_23-12-12_23-12-12_30-03-12_30-03-12_None_None_None_None_None_None_None_None 1.1.1 19.240688676195 -18.97021833780065
asn_33-11-02_33-11-02_33-11-02_33-11-02_28-01-02_28-01-02_None_None_None_None_None_None_None_None 1.1.2 13.364456270659998 -17.096830830581112
asn_34-11-10_34-11-10_34-11-10_34-11-10_28-06-10_28-06-10_None_None_None_None_None_None_None_None 1.1.2 15.8862140597025 -18.57068210696903
asn_34-11-10_34-11-10_34-11-10_34-11-10_29-06-10_29-06-10_None_None_None_None_None_None_None_None 1.1.2 15.72979186152 -17.354250347847
asn_35-11-03_35-11-03_35-11-03_35-11-03_30-01-03_30-01-03_None_None_None_None_None_None_None_None 2.2.2 6.249606543180001 -24.13147381047315
atn_30-03-12_06-12-12_06-12-12_06-12-12 1.1.2 12.901001812808 -15.228575488226523
ato_30-03-12_06-12-12_06-12-12_06-12-12_06-12-12 1.1.2 13.737477275346002 -14.867411642768364
atv_30-03-12_30-03-12_06-12-12_06-12-12_06-12-12_06-12-12_06-12-12_06-12-12 1.1.1 13.371960670927002 -14.951280344601514
baa_30-02-06_30-02-06_None_None 1.2.2 10.660991235350252 -15.440089164991868
bac_30-03-12_30-03-12_06-12-12_06-12-12_06-12-12_06-12-12 1.1.1 13.216089522835 -16.334138995674223
baf_30-03-12_30-03-12_06-12-12_06-12-12_06-12-12_06-12-12_06-12-12 1.1.2 13.140755930688002 -15.397077389738929
bay_30-03-12_30-03-12_06-12-12_06-12-12_06-12-12_06-12-12 1.1.1 12.919959115152 -14.39591302584424
bba_30-03-12_30-03-12_06-12-12_06-12-12_06-12-12 1.1.2 12.116318175058 -14.03995298701602
bbb_30-03-12_30-03-12_06-12-12_06-12-12_06-12-12_06-12-12 1.1.1 12.933588546759998 -15.296745204800738
bbc_30-03-12_30-03-12_06-12-12_06-12-12_06-12-12_06-12-12 1.1.1 12.998018589564 -14.94139471977637
bbg_30-03-12_30-03-12_06-12-12_06-12-12_06-12-12 2.2.1 16.16946375675 -17.53652185028161
bbg_30-03-12_30-03-12_06-12-12_06-12-12_07-12-12 2.2.1 16.316524799446498 -16.52490374627908
bbg_30-03-12_30-03-12_06-12-12_07-12-12_06-12-12 2.2.1 15.445637417706749 -16.56755547424032
bbg_30-03-12_30-03-12_07-12-12_06-12-12_06-12-12 2.2.1 14.360600554633502 -16.83442605827357
bbg_30-03-12_30-03-12_07-12-12_06-12-12_07-12-12 2.2.1 13.630992060855 -16.388145550126744
bbg_30-03-12_30-03-12_07-12-12_07-12-12_06-12-12 2.2.1 13.488266344838998 -16.615696230481042
bbg_30-03-12_30-03-12_07-12-12_07-12-12_07-12-12 2.2.1 13.3357367112255 -16.997060544996064
bbg_30-03-12_30-03-12_08-12-12_08-12-12_08-12-12 2.2.1 11.653306668159251 -13.829950862368229
bbg_30-03-12_30-03-12_09-12-12_09-12-12_08-12-12 2.2.1 11.55849162500725 -15.80543633161864
bbg_30-03-12_30-03-12_09-12-12_09-12-12_09-12-12 2.2.1 11.567522432081253 -16.20505283529924
bbh_30-03-12_30-03-12_06-12-12_06-12-12_06-12-12 1.1.2 13.319177593836 -15.138884379071852
bbh_30-03-12_30-03-12_06-12-12_06-12-12_07-12-12 1.1.2 13.156907350366 -15.316214623114792
bbh_30-03-12_30-03-12_06-12-12_07-12-12_06-12-12 1.1.2 12.881967253453997 -15.845169070327032
bbh_30-03-12_30-03-12_06-12-12_07-12-12_07-12-12 1.1.2 13.102034305542002 -16.372182531283034
bbh_30-03-12_30-03-12_07-12-12_06-12-12_06-12-12 1.1.2 11.682361788361 -14.86184215594052
bbh_30-03-12_30-03-12_07-12-12_06-12-12_07-12-12 1.1.2 11.627342586015 -15.25862098391434
bbh_30-03-12_30-03-12_07-12-12_07-12-12_07-12-12 1.1.2 11.324631391983004 -15.673666106435434
bbi_30-03-12_30-03-12_06-12-12_06-12-12_06-12-12_06-12-12 1.1.1 12.849333865364 -15.12111750161156
bbi_30-03-12_30-03-12_07-12-12_07-12-12_07-12-12_07-12-12 1.1.1 11.066485480076004 -14.827671592646237
bbj_30-03-12_30-03-12_06-12-12_06-12-12_06-12-12_06-12-12 1.1.1 13.20320350896 -15.705858583543847
bbl_30-02-06_30-02-06_None_None_None_None_None 1.2.3 11.202262409296534 -15.677256073200112
bbl_30-03-12_30-03-12_06-12-12_06-12-12_06-12-12_06-12-12_06-12-12 1.2.2 14.2815394712205 -15.92711443208656
bbl_30-03-12_30-03-12_07-12-12_07-12-12_07-12-12_07-12-12_07-12-12 1.2.2 12.263620252178752 -15.974347015594612
bbm_30-03-12_30-03-12_06-12-12_06-12-12_06-12-12_06-12-12 1.1.1 12.712543919100002 -15.491295160175552
bbm_30-03-12_30-03-12_07-12-12_07-12-12_07-12-12_07-12-12 1.1.1 11.348959278969003 -14.788657191898578
bcm_30-03-12_30-03-12_06-12-12_06-12-12_06-12-12 2.2.1 16.857874029796 -17.195067945578913
bcm_30-03-12_30-03-12_06-12-12_06-12-12_07-12-12 2.2.1 16.627294855902747 -16.707991307481706
bcm_30-03-12_30-03-12_06-12-12_07-12-12_06-12-12 2.2.1 16.854705414862497 -17.20217504737768
bcm_30-03-12_30-03-12_06-12-12_07-12-12_07-12-12 2.2.1 16.2825797516655 -17.433175289278847
bcm_30-03-12_30-03-12_07-12-12_06-12-12_06-12-12 2.2.1 14.675605477990503 -17.180679260757664
bcm_30-03-12_30-03-12_07-12-12_06-12-12_07-12-12 2.2.1 14.384419157901002 -16.88964140400885
bcm_30-03-12_30-03-12_07-12-12_07-12-12_06-12-12 2.2.1 14.808479217986996 -17.60068962613706
bcm_30-03-12_30-03-12_07-12-12_07-12-12_07-12-12 2.2.1 13.972316420457002 -16.584999739907524
bcm_30-03-12_30-03-12_08-12-12_08-12-12_08-12-12 2.2.1 11.977882608781748 -15.353721847071895
bcm_30-03-12_30-03-12_09-12-12_08-12-12_08-12-12 2.2.1 12.0661304164005 -16.19490288327029
bcm_30-03-12_30-03-12_09-12-12_09-12-12_08-12-12 2.2.1 12.338877060355996 -16.127526736894914
bcm_30-03-12_30-03-12_09-12-12_09-12-12_09-12-12 2.2.1 11.52074097260625 -16.354585362938383
bcn_30-03-12_30-03-12_06-12-12_06-12-12_06-12-12_06-12-12 2.2.1 13.903508559942 -15.67380221575542
bcn_30-03-12_30-03-12_07-12-12_07-12-12_07-12-12_07-12-12 2.2.1 11.359095894344252 -14.840517810310375
bco_30-02-06_30-02-06_None_None_None_None_None 2.2.2 11.36842954128225 -16.326402940717077
bco_30-03-12_30-03-12_06-12-12_06-12-12_06-12-12_06-12-12_06-12-12 2.1.2 14.247713696465002 -16.29920742659138
bco_30-03-12_30-03-12_07-12-12_07-12-12_07-12-12_07-12-12_07-12-12 2.1.2 11.888227436094 -16.236100325145618
bcp_30-03-12_30-03-12_06-12-12_06-12-12_06-12-12_06-12-12 1.2.1 15.040946700072 -17.561340825203157
bcp_30-03-12_30-03-12_07-12-12_07-12-12_07-12-12_07-12-12 1.2.1 11.939586313018005 -15.853281561873644
bcq_30-03-12_30-03-12_06-12-12_06-12-12_06-12-12_06-12-12 1.1.2 12.7315012214355 -14.68757881860029
bcu-f_33-11-02_01-01-02_01-01-02_02-01-02 2.2.2 12.369212050950129 -15.476864454283987
bcu-f_33-11-02_01-01-02_02-01-02_01-01-02 2.2.2 13.192628901176375 -17.405224113562653
bcu-f_33-11-02_01-01-02_02-01-02_02-01-02 2.2.2 13.07276323295 -18.87584478834897
bcu-f_33-11-02_02-01-02_01-01-02_01-01-02 2.2.2 11.662361207504878 -13.97835465721117
bcu-f_33-11-02_02-01-02_01-01-02_02-01-02 2.2.2 13.016192755282752 -16.613724883319396
bcu-f_35-11-03_01-01-03_01-01-03_02-01-03 2.2.1 11.6400610446315 -18.697691985034304
bcu-f_35-11-03_01-01-03_02-01-03_02-01-03 1.3.1 10.080679174803542 -17.98676397461311
bcu-g_11-03-12_06-12-12_06-12-12_06-12-12 2.1.1 17.155258518567496 -17.75471888447084
bcu-g_11-05-09_03-03-09_03-03-09_03-03-09 2.2.1 11.95527032271 -15.597685374037288
bcu-h_17-12-12_02-03-12_02-03-12_02-03-12 1.1.1 12.577305270897998 -14.101920495772111
bcx_30-03-12_30-03-12_06-12-12_06-12-12_06-12-12_06-12-12 1.1.1 15.177550797236 -16.519077240635117
bcx_30-03-12_30-03-12_07-12-12_07-12-12_07-12-12_07-12-12 1.1.1 11.879611316781 -16.760535089686726
bcx_30-03-12_30-03-12_08-12-12_08-12-12_08-12-12_08-12-12 1.1.1 12.682032069709004 -15.36035238080378
bcz_30-03-12_30-03-12_08-12-12_08-12-12_08-12-12_08-12-12 1.1.1 13.236172518348 -17.844691404753277
bew_31-02-08_31-02-08_06-10-08_06-10-08_07-10-08 3.2.3 13.814055832989174 -23.86734721282286
bex_25-12-12_20-12-12_02-03-12_02-03-12 1.2.5 10.0051469172373 -21.50728516946957
bik_30-03-12_30-03-12_06-12-12_06-12-12_06-12-12_06-12-12 1.1.2 13.137038806691 -14.884758435774009
bil_11-02-05_11-02-05_11-02-05_11-02-05_02-04-05_02-04-05_02-04-05_02-04-05_02-04-05_02-04-05 1.1.4 8.266192299434 -17.612882124617304
bil_12-03-12_12-03-12_12-03-12_12-03-12_06-12-12_06-12-12_06-12-12_06-12-12_06-12-12_06-12-12 1.1.3 10.197830398935734 -21.63602087135028
bil_19-12-12_19-12-12_19-12-12_19-12-12_02-03-12_02-03-12_02-03-12_02-03-12_02-03-12_02-03-12 1.1.4 9.86036988923625 -19.017908712136343
bil_23-12-12_23-12-12_23-12-12_23-12-12_04-03-12_04-03-12_04-03-12_04-03-12_04-03-12_04-03-12 1.1.3 13.82353126085041 -17.467505065544152
bil_35-11-03_35-11-03_35-11-03_35-11-03_01-01-03_01-01-03_01-01-03_01-01-03_01-01-03_01-01-03 1.1.3 11.721685390962454 -22.146990211602727
bil_35-11-03_35-11-03_35-11-03_35-11-03_02-01-03_02-01-03_02-01-03_02-01-03_02-01-03_02-01-03 1.1.3 10.969491085280366 -24.116781231627066
bmn_11-03-12_06-12-12_06-12-12 1.1.1 16.145630888111995 -17.482871688858577
bmn_11-03-12_07-12-12_06-12-12 1.1.1 14.544086291056 -15.797431186868916
bmn_12-03-12_06-12-12_06-12-12 1.1.1 16.057561952446004 -17.692803702724536
bmn_12-03-12_06-12-12_07-12-12 1.1.1 17.449841450327998 -18.029098968144467
bmn_12-03-12_07-12-12_06-12-12 1.1.1 13.303441031793 -15.604912767091028
bmn_12-03-12_07-12-12_07-12-12 1.1.1 12.42632155041 -15.974173815566484
bmn_12-03-12_08-12-12_08-12-12 1.1.1 12.18949312546 -17.716193342724395
bmn_14-03-12_06-12-12_06-12-12 2.1.1 10.488692180559 -15.711694713138266
bmn_17-12-12_01-03-12_02-03-12 1.1.1 16.859649306714 -16.66413092884578
bnl_30-03-12_30-03-12_06-12-12_06-12-12_06-12-12_06-12-12_06-12-12 1.1.1 14.694139587464 -15.967571504366749
bnl_30-03-12_30-03-12_07-12-12_07-12-12_07-12-12_07-12-12_07-12-12 1.1.1 12.483247012770002 -17.063499024755107
bod_11-03-12_12-03-12_07-12-12_07-12-12 2.1.3 14.433560412955138 -18.57598922711706
bod_15-02-05_15-02-05_05-04-05_05-04-05 1.1.1 75.24586127097 -3.666577411502325
bod_15-02-06_15-02-06_05-02-06_05-02-06 1.1.1 80.28105802560802 -3.227848823489467
bod_15-03-09_15-03-09_05-05-09_05-05-09 1.1.1 78.796775127407 -4.136415304292563
bod_15-04-05_15-04-05_05-02-05_05-02-05 1.1.1 76.53123431387299 -3.6479982692036574
bod_15-05-09_15-05-09_05-03-09_05-03-09 1.1.1 77.39409059701899 -3.888058211370654
boe_12-03-12_12-03-12_06-12-12_06-12-12 1.1.1 13.898672351849996 -13.545926432862352
boe_12-03-12_12-03-12_06-12-12_07-12-12 1.1.1 13.110135146783998 -13.424688110813168
boe_12-03-12_12-03-12_07-12-12_06-12-12 1.1.1 13.289066253312 -13.785512995224956
boe_12-03-12_12-03-12_07-12-12_07-12-12 1.1.1 12.817487247618002 -14.415773404282858
boe_17-12-12_17-12-12_01-03-12_01-03-12 1.1.1 14.615602095488004 -13.412715211056868
boe_17-12-12_17-12-12_01-03-12_02-03-12 1.1.1 12.825212809750004 -14.230084808154574
boe_17-12-12_17-12-12_02-03-12_01-03-12 1.1.1 14.925430427985 -14.80741059081013
boe_17-12-12_17-12-12_02-03-12_02-03-12 1.1.1 12.879001937556 -15.12379119044668
boe_33-11-02_33-11-02_02-01-02_01-01-02 2.2.2 11.115418761021749 -14.149976900991122
boe_34-11-10_34-11-10_01-06-10_02-06-10 2.2.2 10.218977873983 -14.918968837006648
boe_34-11-10_34-11-10_02-06-10_01-06-10 2.2.2 12.191588316675752 -14.543648848797655
boe_34-11-10_34-11-10_02-06-10_02-06-10 2.2.2 10.889540778705875 -16.095734069527587
bor_11-03-04_30-02-04_None 2.2.2 14.014509484875004 -17.71845201074497
bor_11-04-05_30-02-05_None 2.2.2 20.271568220229373 -17.076071379424896
bor_11-05-09_30-03-09_None 2.2.2 16.5136971982645 -14.665236247008393
bor_12-03-04_30-02-04_None 2.2.2 12.303670833735753 -17.085959387772498
bor_17-12-12_29-03-12_None 2.2.2 19.487413572036 -18.12544426715477
bor_18-12-12_30-03-12_None 2.2.2 19.311318276773505 -18.97214584180696
bor_33-11-02_29-01-02_None 2.2.2 14.76348681876 -16.66690769378687
bor_34-11-10_28-06-10_None 2.2.2 15.416495050712124 -16.890900989617926
bor_34-11-10_29-06-10_None 2.2.2 15.26209780938375 -16.753397366530255
bpa_17-12-12_17-12-12_02-03-12_02-03-12_02-03-12_02-03-12 2.1.1 12.594658407174 -13.616751534601972
bpc_17-12-12_17-12-12_02-03-12_02-03-12_02-03-12_02-03-12 2.1.1 12.470707433774 -14.433062764098931
bpc_35-11-03_35-11-03_02-01-03_02-01-03_02-01-03_02-01-03 5.1.3 12.016060558565844 -25.22911394297343
bpe_11-03-12_11-03-12_07-12-12_07-12-12_07-12-12_07-12-12_07-12-12 1.2.1 13.210202021719502 -14.129441125006917
bpe_11-03-12_12-03-12_06-12-12_06-12-12_06-12-12_06-12-12_06-12-12 1.2.1 15.252935875436998 -15.292025309204998
bpe_11-03-12_12-03-12_09-12-12_09-12-12_09-12-12_09-12-12_09-12-12 1.2.1 13.758525518062502 -16.31669672301138
bpe_12-03-12_12-03-12_09-12-12_09-12-12_09-12-12_09-12-12_09-12-12 1.2.1 14.131885554731998 -16.599925983957714
bpe_17-12-12_17-12-12_01-03-12_01-03-12_01-03-12_01-03-12_01-03-12 1.2.1 15.03007250581 -14.64777078753043
bpe_35-11-03_35-11-03_01-01-03_01-01-03_01-01-03_01-01-03_01-01-03 1.4.1 15.614078716365002 -20.81051572976593
bpf_12-03-12_12-03-12_06-12-12_06-12-12_06-12-12_06-12-12_06-12-12 2.1.1 13.663745402581998 -14.198707492626577
bpf_17-12-12_17-12-12_02-03-12_02-03-12_02-03-12_02-03-12_02-03-12 2.1.1 12.985103968146005 -14.74165920476459
bpf_23-10-08_23-10-08_01-02-08_01-02-08_01-02-08_01-02-08_01-02-08 5.1.3 12.646071287410969 -15.86284786867315
bpf_35-11-03_35-11-03_01-01-03_01-01-03_01-01-03_01-01-03_01-01-03 5.1.3 15.38379448031307 -25.83232461925957
bpg_17-12-12_17-12-12_02-03-12_02-03-12_02-03-12_02-03-12_02-03-12 1.1.1 12.546317527547998 -13.685092340475205
bpg_23-10-08_18-10-08_02-02-08_02-02-08_02-02-08_02-02-08_02-02-08 3.4.1 11.815248586349387 -18.57825992125281
bpi_17-12-12_17-12-12_02-03-12_02-03-12_02-03-12_02-03-12 1.1.1 12.439719690424 -13.813053468726318
bpi_34-11-10_34-11-10_01-06-10_02-06-10_02-06-10_02-06-10 2.1.1 9.697908820248 -14.16005569199556
bpi_35-11-03_35-11-03_01-01-03_01-01-03_01-01-03_01-01-03 1.1.3 16.75684254326887 -23.4903873776906
bpi_35-11-03_35-11-03_02-01-03_02-01-03_02-01-03_02-01-03 1.1.3 12.884254242714078 -24.41866887982368
bpi_35-11-03_35-11-03_04-01-03_04-01-03_04-01-03_04-01-03 1.1.3 12.4297946407244 -21.510937629972627
bpj_35-11-03_35-11-03_02-01-03_01-01-03_02-01-03 1.3.2 10.811072107608249 -18.97416140786057
bpk_12-03-12_12-03-12_06-12-12_06-12-12_06-12-12_06-12-12_06-12-12 1.1.1 13.354964169609 -13.404076135522477
bpk_17-12-12_17-12-12_02-03-12_02-03-12_02-03-12_02-03-12_02-03-12 1.1.1 12.542598998346 -14.506120604446492
bpk_34-11-10_34-11-10_02-06-10_02-06-10_02-06-10_02-06-10_02-06-10 1.1.2 10.152069779266 -14.655503485172334
bpl_17-12-12_17-12-12_02-03-12_02-03-12_02-03-12_02-03-12_02-03-12 1.1.1 12.518428558533005 -14.57326470578846
bpm_12-03-12_12-03-12_06-12-12_06-12-12_06-12-12_06-12-12_06-12-12 1.3.3 12.0392638370676 -25.9891832270027
bpm_17-12-12_17-12-12_02-03-12_02-03-12_02-03-12_02-03-12_02-03-12 1.1.1 12.491779099251998 -14.052485804511493
bpm_23-10-08_23-10-08_02-02-08_02-02-08_02-02-08_02-02-08_02-02-08 1.3.3 13.481136631955035 -19.41142029657096
bpo_17-12-12_17-12-12_02-03-12_02-03-12_02-03-12_02-03-12_02-03-12 1.1.1 12.662831442544002 -13.647407342288322
bpp_12-03-12_12-03-12_06-12-12_06-12-12_06-12-12 2.1.1 13.059898731722503 -13.77570526811117
bpp_17-12-12_17-12-12_02-03-12_02-03-12_02-03-12 2.1.1 12.4387900581235 -13.654965698593664
bpp_34-11-10_34-11-10_02-06-10_02-06-10_02-06-10 2.2.1 11.243491464935 -15.912364038082393
bpr_11-03-12_23-12-12_None_None 1.1.1 22.845163667712 -18.597323998178187
bpr_11-04-05_11-02-05_None_None 1.1.1 25.73073029904 -17.441126966382978
bpr_11-05-09_12-03-09_None_None 1.1.1 17.437162296888 -16.257930463569753
bpr_12-03-12_12-03-12_06-12-12_06-12-12 1.1.1 14.242856770928 -14.295304590346593
bpr_12-03-12_19-12-12_None_None 1.1.1 15.052479846576 -14.97200983594658
bpr_17-10-08_17-10-08_02-02-08_02-02-08 1.1.1 12.356924151656 -17.819726880567227
bpr_17-12-12_17-12-12_01-03-12_02-03-12 1.1.1 14.219756501567002 -14.35025434513282
bpr_17-12-12_17-12-12_02-03-12_01-03-12 1.1.1 12.966478399521002 -13.73787507553245
bpr_19-12-12_12-03-12_None_None 1.1.1 13.726058084906 -14.531218114874642
bpr_21-12-12_12-03-12_None_None 1.1.1 14.953582813840002 -15.555574437759384
bpr_23-12-12_11-03-12_None_None 1.1.1 21.335717593181997 -18.068893637451527
bpr_34-11-10_34-11-10_02-06-10_02-06-10 1.1.1 10.89079021518 -16.366344446255898
bps_23-10-08_23-10-08_02-02-08_02-02-08_02-02-08_02-02-08 1.3.1 15.413633519168194 -19.95783202601247
bpt_17-12-12_17-12-12_02-03-12_02-03-12_02-03-12_02-03-12 2.1.1 12.7413337231275 -13.804180643513844
bpu_11-03-12_12-03-12_06-12-12_06-12-12_06-12-12_06-12-12 1.1.1 15.644665012586998 -16.156203794238877
bpu_12-03-12_11-03-12_06-12-12_06-12-12_06-12-12_06-12-12 1.1.1 14.633101232574 -14.733947645012332
bpu_12-03-12_12-03-12_06-12-12_06-12-12_06-12-12_06-12-12 1.1.1 15.723068471344 -15.690141656631203
bpu_12-03-12_12-03-12_07-12-12_07-12-12_07-12-12_07-12-12 1.1.1 13.350692522688 -15.129244085272054
bpv_15-03-09_15-03-09_05-05-09_05-05-09_05-05-09_05-05-09 1.1.1 62.52604671199999 -3.8066941558714498
bto-z_12-03-12_06-12-12_06-12-12 2.2.1 11.8935872343555 -12.924982831587531
bto-z_12-03-12_06-12-12_07-12-12 2.2.1 11.410490774336497 -12.874226369427824
bto-z_17-12-12_01-03-12_02-03-12 2.2.1 13.423330641203997 -13.824188102710725
bto-z_17-12-12_02-03-12_01-03-12 2.2.1 12.326018425516 -14.03002828168891
bto-z_17-12-12_02-03-12_02-03-12 2.2.1 12.2884995003975 -12.9316267054414
bto-z_34-11-10_02-06-10_02-06-10 3.3.1 11.207772916177037 -15.704050051977347
bto_12-03-12_06-12-12_06-12-12 2.2.1 13.0414937770815 -13.434946205496072
bto_12-03-12_06-12-12_07-12-12 2.2.1 12.5578128488495 -13.60431267955035
bto_12-03-12_07-12-12_06-12-12 2.2.1 13.162299827043247 -14.369244348028618
bto_17-12-12_01-03-12_02-03-12 2.2.1 13.820459193851995 -14.313619254319722
bto_17-12-12_02-03-12_01-03-12 2.2.1 12.427459813077997 -13.652357163040318
bto_17-12-12_02-03-12_02-03-12 2.2.1 12.658699740877502 -14.511649297914117
bto_34-11-10_02-06-10_02-06-10 3.3.1 11.574269871265034 -15.943898853050095
byl_30-03-12_30-03-12_06-12-12_06-12-12_06-12-12_06-12-12_06-12-12_06-12-12 1.1.1 12.682063550639002 -14.085698990695624
cag-b_30-02-05_30-04-05_None_None_None_None 2.1.2 23.46598050996125 -20.78405550692168
cag-b_30-03-09_30-05-09_None_None_None_None 2.1.2 21.311627185101003 -19.825586413816907
cag-b_30-03-12_30-03-12_06-12-12_06-12-12_06-12-12_06-12-12 1.1.1 12.420378441615998 -15.07204465717934
cag-b_30-04-05_30-02-05_None_None_None_None 2.1.2 23.452782868398 -22.12405853973866
cag-b_30-05-09_30-03-09_None_None_None_None 2.1.2 20.768302361960995 -18.46140727394306
cag_30-03-12_06-12-12_06-12-12_06-12-12_06-12-12 1.1.1 12.500668192720005 -14.319352359294427
cal-d_30-03-12_30-03-12_30-03-12_30-03-12_06-12-12_06-12-12_06-12-12_06-12-12_06-12-12_06-12-12_06-12-12 1.1.1 13.392907703700995 -14.488639444513788
cas_30-03-12_30-03-12_30-03-12_06-12-12_06-12-12_06-12-12_06-12-12_06-12-12_06-12-12 2.1.1 13.389802837831 -14.943242595304069
cbn_30-03-12_30-03-12_30-03-12_30-03-12_06-12-12_06-12-12_06-12-12_06-12-12_06-12-12_06-12-12_06-12-12_06-12-12 1.2.1 13.016975897736 -15.358467000334564
cbo_30-03-12_06-12-12_06-12-12 1.1.1 13.394263379556998 -15.660050500810035
cbo_30-03-12_06-12-12_07-12-12 1.1.1 12.256667758591998 -15.145879695000204
cbo_30-03-12_07-12-12_06-12-12 1.1.1 12.229056272768 -15.644438687914466
cbo_30-03-12_07-12-12_07-12-12 1.1.1 11.179339836434002 -15.293163388864665
cda_28-03-12_30-03-12_06-12-12_08-12-12 1.1.2 12.420289344362 -15.07824619893517
cda_30-03-09_30-03-09_02-05-09_02-05-09 1.1.2 11.912771128703998 -16.38836811056019
cda_30-03-12_30-03-12_06-12-12_06-12-12 1.1.2 19.242033582343 -19.01779490398548
cda_30-03-12_30-03-12_06-12-12_07-12-12 1.1.2 17.8811257777425 -19.629767826608955
cda_30-03-12_30-03-12_07-12-12_06-12-12 1.1.2 17.756660264013 -19.59788200644636
cda_30-03-12_30-03-12_07-12-12_07-12-12 1.1.2 15.320486829433502 -23.369659626587307
cda_30-03-12_30-03-12_08-12-12_08-12-12 1.1.2 12.765108058573498 -15.98091591150574
cda_30-03-12_30-03-12_09-12-12_08-12-12 1.1.2 13.4643459397365 -19.17535165379575
cda_30-03-12_30-03-12_09-12-12_09-12-12 1.1.2 12.094620420565002 -18.690587085194696
cdl-a_15-02-05_15-02-05_15-02-05_05-04-05_05-04-05_05-04-05_05-04-05_05-04-05 1.1.1 68.215513837824 -3.798643060381879
cdl-a_15-02-06_15-02-06_15-02-06_05-02-06_05-02-06_05-02-06_05-02-06_05-02-06 1.1.1 70.70943774384101 -3.5220275766494327
cdl-a_15-03-09_15-03-09_15-03-09_05-05-09_05-05-09_05-05-09_05-05-09_05-05-09 1.1.1 72.007380016125 -4.096664424463613
cdl-a_15-04-05_15-04-05_15-04-05_05-02-05_05-02-05_05-02-05_05-02-05_05-02-05 1.1.1 70.60191152745601 -3.4299607694763026
cdl-a_15-05-09_15-05-09_15-05-09_05-03-09_05-03-09_05-03-09_05-03-09_05-03-09 1.1.1 71.65074659137501 -4.025282925081245
cdp_30-03-12_30-03-12_06-12-12_06-12-12_06-12-12 1.1.1 12.300687233066 -14.429882270474607
cdp_30-03-12_30-03-12_06-12-12_07-12-12_07-12-12 1.1.1 11.739457269812998 -14.831998143469516
cds-a_11-03-12_11-03-12_08-12-12_08-12-12_08-12-12 5.4.1 15.245250710155998 -19.385204661935155
cds-a_15-02-05_15-02-05_05-04-05_05-04-05_05-04-05 1.1.1 66.699099676599 -4.178765797797512
cds-a_15-02-06_15-02-06_05-02-06_05-02-06_05-02-06 1.1.1 68.41487518002799 -4.116972330963877
cds-a_15-03-09_15-03-09_05-05-09_05-05-09_05-05-09 1.1.1 72.238694949926 -3.456561479926429
cds-a_15-04-05_15-04-05_05-02-05_05-02-05_05-02-05 1.1.1 66.98652459471599 -4.034905519874476
cds-a_15-05-09_15-05-09_05-03-09_05-03-09_05-03-09 1.1.1 71.215168061249 -4.168016798763012
cds-a_35-11-03_35-11-03_02-01-03_01-01-03_02-01-03 4.4.1 12.400799308311376 -19.22354772994235
cee-a_15-02-05_15-02-05_15-02-05_15-02-05_03-04-05_03-04-05_03-04-05_03-04-05_03-04-05_03-04-05_03-04-05 1.1.1 73.70506166610599 -3.945987304189636
cee-a_15-02-05_15-02-05_15-02-05_15-02-05_04-04-05_04-04-05_04-04-05_04-04-05_04-04-05_04-04-05_04-04-05 1.1.1 65.13810581506299 -4.036472034911111
cee-a_15-02-06_15-02-06_15-02-06_15-02-06_03-02-06_03-02-06_03-02-06_03-02-06_03-02-06_03-02-06_03-02-06 1.1.1 80.44195872332799 -3.4970805872085955
cee-a_15-02-06_15-02-06_15-02-06_15-02-06_04-02-06_04-02-06_04-02-06_04-02-06_04-02-06_04-02-06_04-02-06 1.1.1 72.829363704519 -3.569840944996102
cee-a_15-03-09_15-03-09_15-03-09_15-03-09_01-05-09_01-05-09_01-05-09_01-05-09_01-05-09_01-05-09_01-05-09 1.1.1 63.121011331914 -3.978653893047361
cee-a_15-03-09_15-03-09_15-03-09_15-03-09_03-05-09_03-05-09_03-05-09_03-05-09_03-05-09_03-05-09_03-05-09 1.1.1 79.7796576749 -3.719458225464036
cee-a_15-03-09_15-03-09_15-03-09_15-03-09_04-05-09_04-05-09_04-05-09_04-05-09_04-05-09_04-05-09_04-05-09 1.1.1 72.822041122432 -3.778366320469653
cee-a_15-04-05_15-04-05_15-04-05_15-04-05_01-02-05_01-02-05_01-02-05_01-02-05_01-02-05_01-02-05_01-02-05 1.1.1 61.05055575122101 -3.8120258608730175
cee-a_15-04-05_15-04-05_15-04-05_15-04-05_03-02-05_03-02-05_03-02-05_03-02-05_03-02-05_03-02-05_03-02-05 1.1.1 77.06619787300198 -3.821336017976175
cee-a_15-04-05_15-04-05_15-04-05_15-04-05_04-02-05_04-02-05_04-02-05_04-02-05_04-02-05_04-02-05_04-02-05 1.1.1 71.130469165119 -3.3979972136222485
cee-a_15-05-09_15-05-09_15-05-09_15-05-09_01-03-09_01-03-09_01-03-09_01-03-09_01-03-09_01-03-09_01-03-09 1.1.1 63.130180624476 -3.967611218142076
cee-a_15-05-09_15-05-09_15-05-09_15-05-09_03-03-09_03-03-09_03-03-09_03-03-09_03-03-09_03-03-09_03-03-09 1.1.1 79.72210944609199 -4.125175162370455
cee-a_15-05-09_15-05-09_15-05-09_15-05-09_04-03-09_04-03-09_04-03-09_04-03-09_04-03-09_04-03-09_04-03-09 1.1.1 72.683935290624 -3.504723811837423
cee-a_16-04-05_16-04-05_16-04-05_16-04-05_05-02-05_05-02-05_05-02-05_05-02-05_05-02-05_05-02-05_05-02-05 1.1.1 62.5546048952 -3.839070611267685
cee-a_16-05-09_16-05-09_16-05-09_16-05-09_05-03-09_05-03-09_05-03-09_05-03-09_05-03-09_05-03-09_05-03-09 1.1.1 65.87400490793601 -4.022546737369233
cef-a_16-05-09_16-05-09_16-05-09_28-05-09_05-03-09_05-03-09_05-03-09_05-03-09_05-03-09_05-03-09_05-03-09_05-03-09 1.1.1 63.6375577968 -4.069131812103581
cem-a_23-12-12_23-12-12_23-12-12_01-03-12_01-03-12_01-03-12_01-03-12_01-03-12_01-03-12 1.1.3 17.815507729346876 -18.85825156317069
cem-a_23-12-12_23-12-12_23-12-12_04-03-12_04-03-12_04-03-12_04-03-12_04-03-12_04-03-12 1.1.3 13.901770744077558 -17.204835706284697
cem-a_35-11-03_35-11-03_35-11-03_01-01-03_01-01-03_01-01-03_01-01-03_01-01-03_01-01-03 1.2.3 15.835427557456896 -20.78519590636228
cez-a_17-12-12_17-12-12_17-12-12_17-12-12_01-03-12_01-03-12_01-03-12_01-03-12_01-03-12_01-03-12_01-03-12 1.1.1 16.530451212743998 -15.69133745126064
cfc_30-03-12_30-03-12_06-12-12_06-12-12_06-12-12 2.2.1 12.73651933087725 -14.305812045789816
cfc_30-03-12_30-03-12_06-12-12_07-12-12_06-12-12 2.2.1 11.763032258998749 -15.518673634609332
cfc_30-03-12_30-03-12_07-12-12_06-12-12_07-12-12 2.2.1 12.163365730372252 -14.430512100303108
cfc_30-03-12_30-03-12_07-12-12_07-12-12_06-12-12 2.2.1 11.195006448567002 -15.00030818760936
cfc_30-03-12_30-03-12_07-12-12_07-12-12_07-12-12 2.2.1 11.342877304425 -14.611942914406796
cfd_30-03-12_30-03-12_30-03-12_06-12-12_06-12-12_06-12-12_06-12-12 2.2.1 12.540813062649 -14.272272006068286
cfd_30-03-12_30-03-12_30-03-12_07-12-12_07-12-12_07-12-12_07-12-12 2.2.1 11.2374564636165 -14.255142269764852
cfe_30-03-12_30-03-12_30-03-12_06-12-12_06-12-12_06-12-12_06-12-12 2.2.1 12.547751687331251 -14.269262542794184
cfe_30-03-12_30-03-12_30-03-12_07-12-12_07-12-12_07-12-12_07-12-12 2.2.1 11.186097586952252 -14.71403479024161
clh_11-02-08_11-02-08_06-10-08_06-10-08_06-10-08 9.9.1 8.553077643748535 -23.75204499768773
clh_11-03-12_11-03-12_06-12-12_06-12-12_06-12-12 3.3.1 18.2849235052985 -16.307673015990748
clh_12-02-08_11-02-08_06-10-08_06-10-08_06-10-08 9.9.1 9.190300254867529 -24.765633938845536
clh_12-03-12_11-03-12_06-12-12_06-12-12_06-12-12 7.7.1 10.898626368244836 -23.53980808040947
clh_17-12-12_17-12-12_01-03-12_01-03-12_01-03-12 2.2.1 15.0442667028725 -14.37149197469434
clh_35-11-03_35-11-03_02-01-03_01-01-03_01-01-03 5.5.1 15.73314274825512 -22.983053913234084
cnw_30-03-12_30-03-12_30-03-12_30-03-12_06-12-12_06-12-12_06-12-12_06-12-12_06-12-12_06-12-12_06-12-12 1.2.1 13.103956461432 -15.4371617928985
cnw_30-03-12_30-03-12_30-03-12_30-03-12_07-12-12_07-12-12_07-12-12_07-12-12_07-12-12_07-12-12_07-12-12 1.2.1 11.524322789133 -15.13188229762302
coe_30-03-12_30-03-12_06-12-12_06-12-12_06-12-12_06-12-12_06-12-12 2.1.2 22.604631558214 -21.15666671437832
coe_30-03-12_30-03-12_09-12-12_09-12-12_09-12-12_09-12-12_09-12-12 2.1.1 10.756610182697498 -22.14825129109466
cpa_30-04-05_11-04-05_01-02-05_01-02-05 1.1.3 13.876020034096614 -15.903627678676193
cpa_30-04-05_11-04-05_04-02-05_04-02-05 1.1.3 13.16859795913338 -17.155486437505985
cpj_24-02-08_24-02-08_06-10-08_06-10-08_07-10-08 2.1.3 13.238281551336224 -18.59627964903148
cpj_31-01-01_31-01-01_06-08-01_06-08-01_07-08-01 2.1.3 12.905796246431152 -20.375604042788638
cpj_31-03-12_31-03-12_06-12-12_06-12-12_06-12-12 3.1.3 12.71474305265978 -24.78523925811283
cpq_11-03-09_11-03-09_02-05-09_02-05-09_02-05-09_02-05-09 1.1.5 10.03150920339 -19.899306035491595
cpq_11-03-12_11-03-12_06-12-12_06-12-12_06-12-12_06-12-12 1.2.4 13.231878628714624 -26.632473033587814
cpq_11-03-12_12-03-12_06-12-12_06-12-12_06-12-12_06-12-12 2.1.3 11.561827655515424 -24.515575380000517
cpq_11-05-09_11-05-09_01-03-09_01-03-09_01-03-09_01-03-09 1.1.5 8.83957461707 -18.176057632876056
cpq_12-03-12_11-03-12_06-12-12_06-12-12_06-12-12_06-12-12 1.1.3 9.916751820453106 -21.00079854275588
cpq_12-03-12_12-03-12_06-12-12_06-12-12_06-12-12_06-12-12 1.1.3 9.871621094441714 -21.115784832259216
cpq_18-12-12_23-12-12_02-03-12_02-03-12_02-03-12_02-03-12 1.2.3 15.870221042984 -22.19272538161904
cpq_18-12-12_23-12-12_04-03-12_04-03-12_04-03-12_04-03-12 1.2.4 13.495751870494498 -20.417130923519625
cpq_23-12-12_18-12-12_01-03-12_01-03-12_01-03-12_01-03-12 1.2.5 14.9058286087338 -30.01352662927147
cpq_23-12-12_18-12-12_02-03-12_02-03-12_02-03-12_02-03-12 1.2.4 13.600814260980377 -26.474429282013105
cpq_23-12-12_18-12-12_03-03-12_03-03-12_03-03-12_03-03-12 1.1.3 13.952252210125998 -16.837135696575462
cpq_23-12-12_23-12-12_01-03-12_01-03-12_01-03-12_01-03-12 1.1.3 16.395377153608095 -18.610158753936997
cpq_23-12-12_23-12-12_03-03-12_03-03-12_03-03-12_03-03-12 1.1.3 13.71238479622886 -15.708668909861425
cpq_23-12-12_23-12-12_04-03-12_04-03-12_04-03-12_04-03-12 1.1.3 15.013049911461604 -19.68175359760874
cpq_35-11-03_35-11-03_01-01-03_01-01-03_01-01-03_01-01-03 2.1.2 13.073814526376 -17.410142311593233
cpq_35-11-03_35-11-03_03-01-03_03-01-03_03-01-03_03-01-03 1.1.3 13.78029097067976 -17.822047176656838
cps_30-04-05_11-04-05_01-02-05_01-02-05_01-02-05_01-02-05 1.1.3 14.733831080065595 -20.51791332824885
cqb_25-12-12_25-12-12_02-03-12_02-03-12_02-03-12_02-03-12_02-03-12 1.1.3 9.973728075271094 -22.076989125093096
cqb_31-03-12_31-03-12_06-12-12_06-12-12_06-12-12_06-12-12_06-12-12 2.1.4 10.5809618235945 -28.71141638550931
cqc_31-02-05_31-02-05_01-04-05_01-04-05_01-04-05_01-04-05_01-04-05 1.1.3 9.935846095581418 -16.57628941731505
cqc_31-05-09_31-05-09_01-03-09_01-03-09_01-03-09_01-03-09_01-03-09 1.1.3 13.442862770608508 -18.65058573878721
cqd_31-03-12_31-03-12_10-12-12_10-12-12_10-12-12_10-12-12_10-12-12_10-12-12 2.1.3 15.269127340574514 -20.13509210312269
cqj_11-03-12_11-03-12_11-03-12_06-12-12_06-12-12_06-12-12 2.2.4 14.915099552965252 -29.336994537500946
cqj_17-12-12_17-12-12_17-12-12_02-03-12_02-03-12_02-03-12 1.1.4 8.36247636971775 -25.363405234022167
cqj_18-12-12_18-12-12_18-12-12_02-03-12_02-03-12_02-03-12 1.1.4 8.869089347096002 -20.660932989221656
cqj_23-12-12_23-12-12_23-12-12_01-03-12_01-03-12_01-03-12 1.1.3 16.008382085227346 -18.408281129850764
cqj_35-11-03_35-11-03_35-11-03_01-01-03_01-01-03_01-01-03 1.1.2 10.850836592246 -15.428255288512348
cqj_35-11-03_35-11-03_35-11-03_01-01-03_01-01-03_02-01-03 1.1.3 11.91980124247553 -18.08744615296587
cqj_35-11-03_35-11-03_35-11-03_01-01-03_02-01-03_02-01-03 2.2.3 13.14020016753522 -22.42000389814701
cqj_35-11-03_35-11-03_35-11-03_02-01-03_01-01-03_01-01-03 1.1.3 10.894911091684897 -20.15131273386611
cqj_35-11-03_35-11-03_35-11-03_02-01-03_01-01-03_02-01-03 1.1.3 11.053024742214122 -18.99401651599544
cqn_11-04-05_11-04-05_30-04-05_11-04-05_01-02-05_01-02-05_01-02-05_01-02-05_01-02-05 1.1.3 16.224020598543014 -17.663088620842743
cqn_11-04-05_11-04-05_30-04-05_11-04-05_02-02-05_02-02-05_02-02-05_02-02-05_02-02-05 1.1.3 13.209728149656266 -19.893745035007896
cqn_11-04-05_11-04-05_30-04-05_11-04-05_03-02-05_03-02-05_03-02-05_03-02-05_03-02-05 1.1.3 13.185289501268 -17.741188339962147
cqu_11-04-05_11-04-05_11-04-05_30-04-05_01-02-05_01-02-05_01-02-05_01-02-05_01-02-05_01-02-05 1.1.3 15.912457555815893 -16.859706366265623
cqu_11-04-05_11-04-05_11-04-05_30-04-05_02-02-05_02-02-05_02-02-05_02-02-05_02-02-05_02-02-05 1.1.3 12.328552507910004 -18.923352880277875
cqz_30-04-05_12-04-05_30-04-05_01-02-05_01-02-05_01-02-05_01-02-05_01-02-05 1.1.3 15.299782910226462 -19.369324393243268
crb-b3_30-03-12_30-03-12_30-03-12_06-12-12_06-12-12_06-12-12_06-12-12 1.1.1 12.117061604112 -14.29045355918302
crb-b_30-02-05_30-04-05_None_None 2.2.2 22.650595785553502 -20.99727928497965
crb-b_30-03-09_30-05-09_None_None 2.2.2 22.012747409004 -20.13244017345652
crb-b_30-03-12_30-03-12_06-12-12_06-12-12 1.1.2 12.1293280884255 -14.096264868397425
crb-b_30-04-05_30-02-05_None_None 2.2.2 23.006932107761248 -21.060003767910366
crb-b_30-05-09_30-03-09_None_None 2.2.2 21.43936631905199 -19.33707599073089
crb_30-03-12_06-12-12_06-12-12 1.1.2 12.070225910556005 -14.90743873927199
cru_25-12-12_20-12-12_02-03-12_02-03-12_02-03-12_02-03-12 1.1.4 9.38462790107875 -20.393672666938084
cru_30-04-05_11-04-05_01-02-05_01-02-05_01-02-05_01-02-05 1.1.3 16.81619102393263 -18.17070493852594
crx_11-04-05_30-04-05_11-04-05_01-02-05_01-02-05_01-02-05 1.1.3 11.031162478610806 -14.687618578697444
cry_11-03-12_11-03-12_11-03-12_06-12-12_06-12-12_06-12-12 2.2.4 11.69730996038056 -27.993024262193707
cry_12-03-12_12-03-12_12-03-12_06-12-12_06-12-12_06-12-12 1.1.3 10.135017978137435 -23.926762263385587
cry_17-12-12_17-12-12_17-12-12_02-03-12_02-03-12_02-03-12 1.1.3 9.30269756940361 -17.914174653074998
cry_23-12-12_23-12-12_23-12-12_01-03-12_01-03-12_01-03-12 1.1.3 17.889098605047845 -20.036649134438708
cry_23-12-12_23-12-12_23-12-12_04-03-12_04-03-12_04-03-12 1.1.3 13.649572741731529 -16.336354236260785
cry_35-11-03_35-11-03_35-11-03_01-01-03_01-01-03_02-01-03 1.1.3 10.866112149660529 -19.7089404127538
cry_35-11-03_35-11-03_35-11-03_01-01-03_02-01-03_01-01-03 1.1.3 11.02933488944222 -18.13912146157756
cry_35-11-03_35-11-03_35-11-03_03-01-03_03-01-03_03-01-03 1.1.3 14.936323751031845 -18.49820562890788
ctn_11-02-04_30-03-04_None 2.2.2 17.980187277975002 -22.132946739682037
ctn_11-02-05_30-04-05_None 1.1.1 24.927484446485 -18.154695062850685
ctn_11-03-09_30-05-09_None 1.1.1 14.450713992232 -14.11006328134229
ctn_11-05-09_30-03-09_None 1.1.1 17.831122538096 -16.137776813303706
ctn_12-02-04_30-03-04_None 2.2.2 15.846565495982375 -22.653443340393583
ctn_12-02-05_30-04-05_None 1.1.1 21.268505105442 -17.951617594065
ctn_12-03-09_30-05-09_None 1.1.1 13.634543333888 -15.726315995739323
ctn_12-04-05_30-02-05_None 1.1.1 12.588515085177 -16.208859128387545
ctn_17-08-01_30-01-01_None 2.2.2 15.857289740835002 -25.989554218576025
ctn_17-10-08_30-02-08_None 2.2.2 16.7568602039 -28.271217786919603
ctn_17-12-12_28-03-12_None 1.1.1 24.104045880538006 -20.702974658405548
ctn_17-12-12_30-03-12_None 2.2.2 15.636817821769498 -31.277169695451686
ctn_23-12-12_30-03-12_None 1.1.1 22.825826611665 -20.944201309737043
ctn_33-11-02_28-01-02_None 2.2.2 16.717127032553748 -18.956040945727747
ctn_33-11-02_29-01-02_None 1.1.1 15.580311314123998 -17.15638702792526
ctn_35-11-03_29-01-03_None 1.1.1 12.819166420898 -16.172161915753474
ctn_35-11-03_30-01-03_None 2.2.2 4.9537563675600005 -23.94620203881652
ctn_36-11-11_29-07-11_None 1.1.1 11.261625632048998 -16.109554441298737
cus_30-03-12_30-03-12_06-12-12_06-12-12_06-12-12_06-12-12 2.1.1 12.883717213612002 -14.7640377020509
dea_30-03-12_11-03-12_11-03-12_06-12-12_06-12-12_06-12-12_06-12-12_06-12-12 1.1.1 13.061254041227 -14.34198798531591
dea_30-03-12_12-03-12_12-03-12_06-12-12_06-12-12_06-12-12_06-12-12_06-12-12 1.1.1 12.870553588799998 -14.315731586157488
dhc_31-03-12_31-03-12_31-03-12_31-03-12_31-03-12_06-12-12_06-12-12_06-12-12_06-12-12_06-12-12_06-12-12 1.1.3 10.956990107108233 -22.03827559368082
dhf_19-12-12_19-12-12_19-12-12_19-12-12_02-03-12_02-03-12_02-03-12_02-03-12_02-03-12_02-03-12_02-03-12 1.1.4 8.369001051500499 -20.19781769772353
dhf_23-12-12_23-12-12_23-12-12_23-12-12_01-03-12_01-03-12_01-03-12_01-03-12_01-03-12_01-03-12_01-03-12 1.1.3 15.019775958841478 -17.01395612014728
dhh_11-03-12_11-03-12_11-03-12_11-03-12_06-12-12_06-12-12_06-12-12_06-12-12_06-12-12_06-12-12 1.1.4 11.857933391256 -24.393987301577678
dhh_17-12-12_17-12-12_17-12-12_17-12-12_02-03-12_02-03-12_02-03-12_02-03-12_02-03-12_02-03-12 1.1.3 10.697519900022533 -22.491137994817468
dhh_23-12-12_23-12-12_23-12-12_23-12-12_02-03-12_02-03-12_02-03-12_02-03-12_02-03-12_02-03-12 1.1.3 15.53089168975411 -21.30191091483036
dhh_35-11-03_35-11-03_35-11-03_35-11-03_01-01-03_01-01-03_01-01-03_01-01-03_01-01-03_01-01-03 1.1.3 12.258288512581624 -20.560064391593507
dhh_35-11-03_35-11-03_35-11-03_35-11-03_02-01-03_02-01-03_02-01-03_02-01-03_02-01-03_02-01-03 1.2.3 11.873944335498146 -24.176208461298536
dia-b3++_30-02-06_30-02-06_30-02-06_None_None 2.2.3 11.538352998389804 -16.656726096806548
dia-b3++_30-03-12_30-03-12_30-03-12_06-12-12_06-12-12 2.2.1 12.360161125517 -14.553576668674918
dia-b3++_30-03-12_30-03-12_30-03-12_06-12-12_07-12-12 2.2.1 11.6339933593975 -14.610531592049208
dia-b3++_30-03-12_30-03-12_30-03-12_07-12-12_06-12-12 2.2.1 11.892054553951 -14.21333794542267
dia-b3+_30-02-06_30-02-06_30-02-06_None_None 2.2.3 11.850025087514991 -17.00320404897256
dia-b3+_30-03-12_30-03-12_30-03-12_06-12-12_06-12-12 1.1.1 11.981015076035998 -13.824984032676715
dia-b3+_30-03-12_30-03-12_30-03-12_06-12-12_07-12-12 1.1.1 11.683681968640004 -14.796918737959857
dia-b3+_30-03-12_30-03-12_30-03-12_07-12-12_06-12-12 1.1.1 11.771174563089998 -14.657028705573476
dia-b3+_30-03-12_30-03-12_30-03-12_07-12-12_07-12-12 1.1.1 10.894838719210002 -14.91270183893946
dia-b3_30-02-06_30-02-06_30-02-06_None_None 2.2.2 11.740679937765629 -16.81500256714862
dia-b3_30-03-12_30-03-12_30-03-12_06-12-12_06-12-12 1.1.1 12.061304832512 -13.903280877048331
dia-b4+_30-02-06_30-02-06_30-02-06_30-02-06_None_None_None 2.2.3 11.83702081092504 -16.831700706557758
dia-b4+_30-03-12_30-03-12_30-03-12_30-03-12_06-12-12_06-12-12_06-12-12 1.1.1 12.438220602951002 -14.374167524375515
dia-b4+_30-03-12_30-03-12_30-03-12_30-03-12_06-12-12_07-12-12_06-12-12 1.1.1 11.973525623047005 -14.429822435612522
dia-b4+_30-03-12_30-03-12_30-03-12_30-03-12_07-12-12_06-12-12_06-12-12 1.1.1 11.46656006423 -14.286596805876131
dia-b4+_30-03-12_30-03-12_30-03-12_30-03-12_07-12-12_06-12-12_07-12-12 1.1.1 11.22313910695 -14.747200895792272
dia-b4+_30-03-12_30-03-12_30-03-12_30-03-12_07-12-12_07-12-12_07-12-12 1.1.1 11.188800686885 -13.985795711964789
dia-b4_30-02-06_30-02-06_30-02-06_30-02-06_None_None_None 2.2.2 11.737753952125 -17.139039069957846
dia-b4_30-03-12_30-03-12_30-03-12_30-03-12_06-12-12_06-12-12_06-12-12 1.1.1 12.479480619511998 -14.452227185498566
dia-b4_30-03-12_30-03-12_30-03-12_30-03-12_06-12-12_06-12-12_07-12-12 1.1.1 11.842976557549996 -14.851010331447132
dia-b4_30-03-12_30-03-12_30-03-12_30-03-12_06-12-12_07-12-12_07-12-12 1.1.1 11.801786229312002 -14.054402778722134
dia-b4_30-03-12_30-03-12_30-03-12_30-03-12_07-12-12_06-12-12_07-12-12 1.1.1 11.02087366625 -14.637930891675213
dia-b4_30-03-12_30-03-12_30-03-12_30-03-12_07-12-12_07-12-12_06-12-12 1.1.1 11.313380619086 -14.571603668235726
dia-b4_30-03-12_30-03-12_30-03-12_30-03-12_07-12-12_07-12-12_07-12-12 1.1.1 11.283071243367 -14.354412307290438
dia-b5_30-03-12_30-03-12_30-03-12_30-03-12_30-03-12_06-12-12_06-12-12_06-12-12_06-12-12 1.1.1 12.327822200760002 -14.5145201429835
dia-b_30-02-05_30-04-05_None 2.2.2 22.3659857761895 -21.0881153259754
dia-b_30-02-06_30-02-06_None 2.2.3 11.99003888423248 -16.95110104417078
dia-b_30-03-09_30-05-09_None 2.2.2 21.834721828656 -19.45475985563996
dia-b_30-03-12_30-03-12_06-12-12 1.1.1 12.340088684979 -14.4948571733626
dia-b_30-04-05_30-02-05_None 2.2.2 23.315068347738 -22.72060806414932
dia-b_30-05-09_30-03-09_None 2.2.2 21.98095712679901 -20.90768356096824
dia-f_11-03-12_06-12-12_06-12-12 1.1.7 9.235011873646332 -19.961451713018597
dia-f_35-11-03_01-01-03_02-01-03 1.1.5 9.6207744629588 -19.61916176791333
dia-f_35-11-03_02-01-03_01-01-03 1.1.5 10.420466990190398 -19.75324266584576
dia-g_13-03-09_05-05-09_05-05-09_05-05-09 1.1.1 63.50521960973001 -3.9027037331787993
dia-g_14-03-09_05-05-09_05-05-09_05-05-09 1.1.1 62.316862896 -3.879338070872312
dia-g_14-05-09_05-03-09_05-03-09_05-03-09 1.1.1 63.57272495040001 -4.071787018415809
dia-g_15-02-04_05-03-04_05-03-04_05-03-04 1.1.1 69.257247677553 -3.807523585555475
dia-g_15-02-05_03-04-05_03-04-05_03-04-05 1.1.1 60.20556735200001 -4.175202441820764
dia-g_15-02-05_05-04-05_05-04-05_05-04-05 1.1.1 78.352473105504 -3.377021891646827
dia-g_15-02-06_04-02-06_03-02-06_03-02-06 1.1.1 65.3847413021 -4.110024716017486
dia-g_15-02-06_04-02-06_03-02-06_04-02-06 1.1.1 64.67904409725 -3.43272172902993
dia-g_15-02-06_05-02-06_05-02-06_05-02-06 1.1.1 70.81695044728198 -3.772422889810805
dia-g_15-03-09_03-05-09_03-05-09_03-05-09 1.1.1 64.20532560062401 -3.943633342713301
dia-g_15-03-09_05-05-09_05-05-09_05-05-09 1.1.1 89.48076163649999 -3.948335624175866
dia-g_15-04-05_03-02-05_03-02-05_03-02-05 1.1.1 61.49031115531499 -4.074586689511086
dia-g_15-04-05_05-02-05_05-02-05_05-02-05 1.1.1 83.33505563745601 -3.977357576318685
dia-g_15-05-09_03-03-09_03-03-09_03-03-09 1.1.1 63.44692215791999 -4.030002513527661
dia-g_15-05-09_05-03-09_05-03-09_05-03-09 1.1.1 85.96521728849997 -4.023415420383917
dia_30-02-06_None 2.3.2 11.955360622595016 -17.1716911466959
dia_30-03-12_06-12-12 1.1.1 12.248647579596 -13.768724535336617
dma_11-02-08_11-02-08_06-10-08_06-10-08_06-10-08_06-10-08_06-10-08 9.1.1 7.942358938495158 -21.220050435279035
dma_11-03-12_11-03-12_06-12-12_06-12-12_06-12-12_06-12-12_06-12-12 3.1.1 16.48156012176121 -15.651984592957335
dma_12-03-12_11-03-12_06-12-12_06-12-12_06-12-12_06-12-12_06-12-12 7.1.1 10.904513965112637 -22.79598735972434
dma_12-03-12_12-03-12_06-12-12_06-12-12_06-12-12_06-12-12_06-12-12 6.1.1 11.081658999515072 -23.598571520041016
dma_12-03-12_12-03-12_09-12-12_09-12-12_09-12-12_09-12-12_09-12-12 2.1.1 13.285709371173 -15.19906733783554
dma_15-03-09_15-03-09_05-05-09_05-05-09_05-05-09_05-05-09_05-05-09 1.1.1 64.85980578974998 -3.7879670385399895
dma_15-05-09_15-05-09_05-03-09_05-03-09_05-03-09_05-03-09_05-03-09 1.1.1 67.582033990125 -4.058484311490954
dma_17-10-08_17-10-08_01-02-08_01-02-08_01-02-08_01-02-08_01-02-08 9.1.1 8.978270678508016 -24.082363148043456
dma_17-12-12_17-12-12_02-03-12_02-03-12_02-03-12_02-03-12_02-03-12 6.1.1 12.817770246059684 -28.85995381933643
dma_23-08-01_23-08-01_02-01-01_02-01-01_02-01-01_02-01-01_02-01-01 5.1.2 12.8674337734098 -16.781156505557576
dma_35-11-03_35-11-03_02-01-03_02-01-03_02-01-03_02-01-03_02-01-03 5.1.1 11.4505521379862 -26.64347232563804
dmf_30-03-12_11-03-12_07-12-12_07-12-12_07-12-12 1.2.2 12.566186978532 -14.136871682288968
dmf_30-03-12_12-03-12_06-12-12_06-12-12_06-12-12 1.2.2 16.450505046334 -15.314331396306988
dmf_30-03-12_12-03-12_07-12-12_07-12-12_07-12-12 1.2.2 14.706034575316 -16.210966436875403
doh_30-03-12_30-03-12_30-03-12_30-03-12_06-12-12_06-12-12_06-12-12_06-12-12_06-12-12_06-12-12_06-12-12 1.1.1 12.956037024735002 -14.989291390039408
edi-c_30-03-12_30-03-12_06-12-12_06-12-12_07-12-12 1.2.2 12.219671340466 -18.96668278013759
edi-c_30-03-12_30-03-12_06-12-12_07-12-12_06-12-12 2.2.2 23.47508157629549 -24.29712286710064
edi-c_30-03-12_30-03-12_07-12-12_06-12-12_06-12-12 2.2.2 13.7023122159395 -19.680487982107465
edi-c_30-03-12_30-03-12_07-12-12_06-12-12_07-12-12 2.2.2 19.84351842700125 -23.835625398617932
edi-c_30-03-12_30-03-12_07-12-12_07-12-12_06-12-12 2.2.2 13.50663700100875 -20.32458685908919
edi-c_30-03-12_30-03-12_07-12-12_07-12-12_07-12-12 2.2.2 14.415894894782005 -25.8438739092988
edi-c_30-03-12_30-03-12_08-12-12_08-12-12_08-12-12 1.1.1 16.347499092054 -16.42521320379095
edi-c_30-03-12_30-03-12_08-12-12_08-12-12_09-12-12 1.1.1 15.594573639980002 -17.927988250072794
edi-c_30-03-12_30-03-12_09-12-12_08-12-12_08-12-12 1.1.1 13.654711960385004 -20.088768428684823
edi-c_30-03-12_30-03-12_09-12-12_08-12-12_09-12-12 1.1.1 13.293698674484 -18.65784584684581
edi-c_30-03-12_30-03-12_09-12-12_09-12-12_08-12-12 1.1.1 13.528686766285002 -20.50596829352741
eec_17-12-12_31-03-12_28-03-12_None_None 2.2.1 18.277694843556752 -17.435194223905388
eec_17-12-12_31-03-12_29-03-12_None_None 2.2.1 18.025508286550497 -16.615440651105693
eec_33-11-02_31-01-02_29-01-02_None_None 2.2.1 13.727419505308498 -16.434624702279333
eec_34-11-10_31-06-10_28-06-10_None_None 2.2.1 15.191575784875 -17.934272891363523
eec_34-11-10_31-06-10_29-06-10_None_None 2.2.1 15.437905870111996 -16.645978724743305
eed_17-12-12_31-03-12_28-03-12_None_None 2.2.1 18.20950564919325 -18.447409915238843
eed_33-11-02_31-01-02_28-01-02_None_None 2.2.1 13.40692467112 -15.494453016096454
eed_34-11-10_31-06-10_28-06-10_None_None 2.2.1 15.17488821778125 -16.18889986224442
eed_34-11-10_31-06-10_29-06-10_None_None 2.2.1 15.110458350416 -16.11996498646152
epz_28-03-12_17-12-12_31-03-12_None_None 1.1.1 14.231953032400002 -14.930124292675885
epz_29-03-12_17-12-12_31-03-12_None_None 1.1.1 14.164065710821 -16.002728624097017
eta-c_11-03-12_06-12-12_06-12-12 1.1.2 15.937449393436998 -16.237422269732267
eta-c_11-03-12_06-12-12_07-12-12 1.1.2 14.451786530263496 -16.768248941050665
eta-c_12-03-12_06-12-12_06-12-12 1.1.3 18.157680638966 -19.326264813088223
eta-c_17-12-12_01-03-12_01-03-12 1.1.2 17.802671403197998 -15.878215006627432
eta-c_17-12-12_01-03-12_02-03-12 1.1.2 16.424606417714003 -17.165448433426732
eta-c_17-12-12_02-03-12_01-03-12 1.1.3 17.694711679243945 -17.66568372447915
eta-c_17-12-12_02-03-12_02-03-12 1.4.2 10.570539009419996 -32.413286234500006
etb_15-03-09_05-05-09_05-05-09 1.1.1 61.848848094012 -3.6564580313276256
etc_15-02-05_15-02-05_05-04-05_05-04-05 1.1.1 69.21434302134699 -4.009208765073682
etc_15-02-06_15-02-06_05-02-06_05-02-06 1.1.1 71.559765489238 -3.891919295032855
etc_15-03-09_15-03-09_05-05-09_05-05-09 1.1.1 70.68408237251799 -4.047058014204597
etc_15-04-05_15-04-05_05-02-05_05-02-05 1.1.1 69.239671653978 -4.131707240222803
etc_15-05-09_15-05-09_05-03-09_05-03-09 1.1.1 69.623015123307 -4.245293920322366
etd_15-02-05_05-04-05_05-04-05_05-04-05 1.1.1 63.471350825856 -4.354878222237605
etd_15-02-06_05-02-06_05-02-06_05-02-06 1.1.1 65.096354757738 -4.100664956757044
etd_15-03-09_05-05-09_05-05-09_05-05-09 1.1.1 65.01254353099999 -4.037598064239328
etd_15-04-05_05-02-05_05-02-05_05-02-05 1.1.1 62.64982213343999 -4.081335749358731
etd_15-05-09_05-03-09_05-03-09_05-03-09 1.1.1 64.2330289865 -3.425302940280402
eth_15-03-09_15-03-09_05-05-09_05-05-09_05-05-09_05-05-09 1.1.1 62.33098405449999 -4.091125317432616
eti_35-11-03_35-11-03_01-01-03_01-01-03_01-01-03_01-01-03 1.1.2 12.0670774707825 -15.626117995359174
eti_35-11-03_35-11-03_04-01-03_04-01-03_04-01-03_04-01-03 1.1.3 13.265107196787254 -18.604674869068848
etm_35-11-03_35-11-03_01-01-03_01-01-03_01-01-03_01-01-03 3.1.1 16.898843910665345 -22.0597488557914
fes_11-03-12_06-12-12_06-12-12 2.2.3 14.210489343615054 -21.282455869614484
fes_12-03-12_06-12-12_07-12-12 2.2.3 10.997973069999784 -22.029322107299997
fes_17-12-12_01-03-12_02-03-12 2.2.4 9.149198446920376 -20.91328149951457
fes_17-12-12_02-03-12_01-03-12 1.2.4 8.76466936086675 -26.14613047860881
fes_18-12-12_02-03-12_02-03-12 1.1.4 10.0520293550375 -21.14529434769675
fes_19-12-12_02-03-12_01-03-12 1.1.4 8.821169419104 -19.49208618331196
fes_23-12-12_01-03-12_01-03-12 2.2.3 17.545603345323034 -19.78185822552859
fes_23-12-12_02-03-12_01-03-12 3.2.5 10.487591087554588 -29.4890678310335
fes_23-12-12_04-03-12_03-03-12 2.1.3 14.363789422658662 -18.537103330476015
fes_35-11-03_01-01-03_02-01-03 2.2.3 13.550529573448664 -19.462513043118555
fes_35-11-03_02-01-03_01-01-03 2.2.3 9.549396378751243 -19.502871997401
ffc-a_11-03-09_11-03-09_11-03-09_11-03-09_05-05-09_05-05-09_05-05-09_05-05-09_05-05-09_05-05-09_05-05-09 1.1.1 67.340914953508 -4.492942590288316
ffc-a_11-04-05_11-04-05_11-04-05_11-04-05_05-02-05_05-02-05_05-02-05_05-02-05_05-02-05_05-02-05_05-02-05 1.1.1 68.31824783529999 -4.264192624596662
ffc-a_12-03-09_12-03-09_12-03-09_12-03-09_05-05-09_05-05-09_05-05-09_05-05-09_05-05-09_05-05-09_05-05-09 1.1.1 65.40128655792 -4.252760586052129
ffc-a_13-02-05_13-02-05_13-02-05_13-02-05_03-04-05_03-04-05_03-04-05_03-04-05_03-04-05_03-04-05_03-04-05 1.1.1 70.10067926303199 -4.2280184272085855
ffc-a_13-02-05_13-02-05_13-02-05_13-02-05_04-04-05_04-04-05_04-04-05_04-04-05_04-04-05_04-04-05_04-04-05 1.1.1 62.98085966316299 -4.267094166755262
ffc-a_13-02-06_13-02-06_13-02-06_13-02-06_03-02-06_03-02-06_03-02-06_03-02-06_03-02-06_03-02-06_03-02-06 1.1.1 82.627596138912 -3.336602515178425
ffc-a_13-02-06_13-02-06_13-02-06_13-02-06_04-02-06_04-02-06_04-02-06_04-02-06_04-02-06_04-02-06_04-02-06 1.1.1 72.17296684645 -3.7794894387637457
ffc-a_13-03-09_13-03-09_13-03-09_13-03-09_04-05-09_04-05-09_04-05-09_04-05-09_04-05-09_04-05-09_04-05-09 1.1.1 73.86674836748902 -4.050191937830469
ffc-a_13-04-05_13-04-05_13-04-05_13-04-05_03-02-05_03-02-05_03-02-05_03-02-05_03-02-05_03-02-05_03-02-05 1.1.1 77.76657194741601 -4.213381937082212
ffc-a_13-04-05_13-04-05_13-04-05_13-04-05_04-02-05_04-02-05_04-02-05_04-02-05_04-02-05_04-02-05_04-02-05 1.1.1 71.386089290217 -4.192534744042627
ffc-a_13-05-09_13-05-09_13-05-09_13-05-09_03-03-09_03-03-09_03-03-09_03-03-09_03-03-09_03-03-09_03-03-09 1.1.1 77.48642589635598 -3.84511842487755
ffc-a_13-05-09_13-05-09_13-05-09_13-05-09_04-03-09_04-03-09_04-03-09_04-03-09_04-03-09_04-03-09_04-03-09 1.1.1 73.985955412761 -3.721221042921102
ffc-a_14-02-05_14-02-05_14-02-05_14-02-05_03-04-05_03-04-05_03-04-05_03-04-05_03-04-05_03-04-05_03-04-05 1.1.1 75.461504297375 -3.829096039987649
ffc-a_14-02-05_14-02-05_14-02-05_14-02-05_04-04-05_04-04-05_04-04-05_04-04-05_04-04-05_04-04-05_04-04-05 1.1.1 64.464189625886 -4.276388354323006
ffc-a_14-02-06_14-02-06_14-02-06_14-02-06_03-02-06_03-02-06_03-02-06_03-02-06_03-02-06_03-02-06_03-02-06 1.1.1 64.688639177388 -3.6487799809772383
ffc-a_14-03-09_14-03-09_14-03-09_14-03-09_03-05-09_03-05-09_03-05-09_03-05-09_03-05-09_03-05-09_03-05-09 1.1.1 77.85981184964399 -3.6650036988427432
ffc-a_14-03-09_14-03-09_14-03-09_14-03-09_04-05-09_04-05-09_04-05-09_04-05-09_04-05-09_04-05-09_04-05-09 1.1.1 69.67412145778502 -4.026731534584686
ffc-a_14-04-05_14-04-05_14-04-05_14-04-05_03-02-05_03-02-05_03-02-05_03-02-05_03-02-05_03-02-05_03-02-05 1.1.1 75.960534299475 -3.365046578130336
ffc-a_14-04-05_14-04-05_14-04-05_14-04-05_04-02-05_04-02-05_04-02-05_04-02-05_04-02-05_04-02-05_04-02-05 1.1.1 68.27102352112 -4.4746146975302405
ffc-a_14-05-09_14-05-09_14-05-09_14-05-09_04-03-09_04-03-09_04-03-09_04-03-09_04-03-09_04-03-09_04-03-09 1.1.1 72.41101740042299 -4.289677900944473
ffc-a_15-02-04_15-02-04_15-02-04_15-02-04_01-03-04_01-03-04_01-03-04_01-03-04_01-03-04_01-03-04_01-03-04 1.1.1 68.54197343136 -3.486149809068982
ffc-a_15-02-04_15-02-04_15-02-04_15-02-04_04-03-04_04-03-04_04-03-04_04-03-04_04-03-04_04-03-04_04-03-04 1.1.1 81.17386443831701 -3.4933173211392545
ffc-a_15-02-05_15-02-05_15-02-05_15-02-05_01-04-05_01-04-05_01-04-05_01-04-05_01-04-05_01-04-05_01-04-05 1.1.1 80.35252557115301 -3.612697222870143
ffc-a_15-02-05_15-02-05_15-02-05_15-02-05_02-04-05_02-04-05_02-04-05_02-04-05_02-04-05_02-04-05_02-04-05 1.1.1 63.535604223045 -4.004408798394171
ffc-a_15-02-05_15-02-05_15-02-05_15-02-05_03-04-05_03-04-05_03-04-05_03-04-05_03-04-05_03-04-05_03-04-05 1.1.1 101.890243395369 -3.9503653165991786
ffc-a_15-02-05_15-02-05_15-02-05_15-02-05_04-04-05_04-04-05_04-04-05_04-04-05_04-04-05_04-04-05_04-04-05 1.1.1 88.06629525043998 -3.3384984481263054
ffc-a_15-02-06_15-02-06_15-02-06_15-02-06_01-02-06_01-02-06_01-02-06_01-02-06_01-02-06_01-02-06_01-02-06 1.1.1 78.625896103544 -3.448823807407221
ffc-a_15-02-06_15-02-06_15-02-06_15-02-06_02-02-06_02-02-06_02-02-06_02-02-06_02-02-06_02-02-06_02-02-06 1.1.1 72.38585004299999 -3.76167131989116
ffc-a_15-02-06_15-02-06_15-02-06_15-02-06_03-02-06_03-02-06_03-02-06_03-02-06_03-02-06_03-02-06_03-02-06 1.1.1 99.53800153895 -3.0376827464938243
ffc-a_15-02-06_15-02-06_15-02-06_15-02-06_04-02-06_04-02-06_04-02-06_04-02-06_04-02-06_04-02-06_04-02-06 1.1.1 89.779245657432 -3.534032017369031
ffc-a_15-03-09_15-03-09_15-03-09_15-03-09_02-05-09_02-05-09_02-05-09_02-05-09_02-05-09_02-05-09_02-05-09 1.1.1 78.910650335822 -3.559633092529827
ffc-a_15-03-09_15-03-09_15-03-09_15-03-09_03-05-09_03-05-09_03-05-09_03-05-09_03-05-09_03-05-09_03-05-09 1.1.1 114.732670486532 -3.8104065229810953
ffc-a_15-04-05_15-04-05_15-04-05_15-04-05_01-02-05_01-02-05_01-02-05_01-02-05_01-02-05_01-02-05_01-02-05 1.1.1 86.69540951586902 -3.788333352053648
ffc-a_15-04-05_15-04-05_15-04-05_15-04-05_02-02-05_02-02-05_02-02-05_02-02-05_02-02-05_02-02-05_02-02-05 1.1.1 76.20000997554001 -3.7752943295996033
ffc-a_15-04-05_15-04-05_15-04-05_15-04-05_03-02-05_03-02-05_03-02-05_03-02-05_03-02-05_03-02-05_03-02-05 1.1.1 111.630644107047 -3.594792369633291
ffc-a_15-04-05_15-04-05_15-04-05_15-04-05_04-02-05_04-02-05_04-02-05_04-02-05_04-02-05_04-02-05_04-02-05 1.1.1 101.11219576927 -3.6091019602364978
ffc-a_15-05-09_15-05-09_15-05-09_15-05-09_01-03-09_01-03-09_01-03-09_01-03-09_01-03-09_01-03-09_01-03-09 1.1.1 91.2484141106 -3.977130431235114
ffc-a_15-05-09_15-05-09_15-05-09_15-05-09_03-03-09_03-03-09_03-03-09_03-03-09_03-03-09_03-03-09_03-03-09 1.1.1 112.95843804116902 -3.393757338680179
ffc-a_15-05-09_15-05-09_15-05-09_15-05-09_04-03-09_04-03-09_04-03-09_04-03-09_04-03-09_04-03-09_04-03-09 1.1.1 105.48013817015202 -3.848607845864816
ffc-a_16-02-05_16-02-05_16-02-05_16-02-05_05-04-05_05-04-05_05-04-05_05-04-05_05-04-05_05-04-05_05-04-05 1.1.1 89.92695775429598 -3.7897160278981423
ffc-a_16-02-06_16-02-06_16-02-06_16-02-06_03-02-06_03-02-06_03-02-06_03-02-06_03-02-06_03-02-06_03-02-06 1.1.1 66.764443291452 -3.6580842117614334
ffc-a_16-03-09_16-03-09_16-03-09_16-03-09_05-05-09_05-05-09_05-05-09_05-05-09_05-05-09_05-05-09_05-05-09 1.1.1 94.399376905075 -3.950861660489696
ffc-a_16-04-05_16-04-05_16-04-05_16-04-05_05-02-05_05-02-05_05-02-05_05-02-05_05-02-05_05-02-05_05-02-05 1.1.1 87.509132667664 -3.475837444239852
ffc-a_16-05-09_16-05-09_16-05-09_16-05-09_03-03-09_03-03-09_03-03-09_03-03-09_03-03-09_03-03-09_03-03-09 1.1.1 63.3328322349 -4.202997124027927
ffc-a_16-05-09_16-05-09_16-05-09_16-05-09_05-03-09_05-03-09_05-03-09_05-03-09_05-03-09_05-03-09_05-03-09 1.1.1 91.34831563451 -4.326722739635266
ffc-a_19-08-01_19-08-01_19-08-01_19-08-01_05-01-01_05-01-01_05-01-01_05-01-01_05-01-01_05-01-01_05-01-01 1.1.1 67.949120569824 -3.736405067478878
ffc-a_19-10-08_19-10-08_19-10-08_19-10-08_05-02-08_05-02-08_05-02-08_05-02-08_05-02-08_05-02-08_05-02-08 1.1.1 69.06397495431001 -3.829030827791111
ffc-a_19-12-12_19-12-12_19-12-12_19-12-12_05-03-12_05-03-12_05-03-12_05-03-12_05-03-12_05-03-12_05-03-12 1.1.1 66.39630918451198 -3.870422825680243
ffc-a_20-10-08_20-10-08_20-10-08_20-10-08_05-02-08_05-02-08_05-02-08_05-02-08_05-02-08_05-02-08_05-02-08 1.1.1 78.59421085941901 -3.3600152349818906
ffc-a_20-12-12_20-12-12_20-12-12_20-12-12_05-03-12_05-03-12_05-03-12_05-03-12_05-03-12_05-03-12_05-03-12 1.1.1 80.417021311056 -3.900725287982768
ffc-a_21-08-01_21-08-01_21-08-01_21-08-01_05-01-01_05-01-01_05-01-01_05-01-01_05-01-01_05-01-01_05-01-01 1.1.1 68.96892794671001 -4.070518866345973
ffc-a_21-12-12_21-12-12_21-12-12_21-12-12_05-03-12_05-03-12_05-03-12_05-03-12_05-03-12_05-03-12_05-03-12 1.1.1 69.245360010486 -4.386008388916793
ffc-a_32-02-04_32-02-04_32-02-04_32-02-04_05-03-04_05-03-04_05-03-04_05-03-04_05-03-04_05-03-04_05-03-04 1.1.1 82.60309463556601 -4.149368015931129
ffc-a_32-02-05_32-02-05_32-02-05_32-02-05_03-04-05_03-04-05_03-04-05_03-04-05_03-04-05_03-04-05_03-04-05 1.1.1 60.172835559805 -4.31935083146836
ffc-a_32-02-06_32-02-06_32-02-06_32-02-06_03-02-06_03-02-06_03-02-06_03-02-06_03-02-06_03-02-06_03-02-06 1.1.1 64.272645895622 -4.009059798182681
ffc-a_32-02-06_32-02-06_32-02-06_32-02-06_04-02-06_04-02-06_04-02-06_04-02-06_04-02-06_04-02-06_04-02-06 1.1.1 67.96197206425 -4.4005358217403305
ffc-a_32-03-09_32-03-09_32-03-09_32-03-09_03-05-09_03-05-09_03-05-09_03-05-09_03-05-09_03-05-09_03-05-09 1.1.1 62.190209329428 -4.727292909722162
ffc-a_32-03-09_32-03-09_32-03-09_32-03-09_04-05-09_04-05-09_04-05-09_04-05-09_04-05-09_04-05-09_04-05-09 1.1.1 70.81693774764801 -3.9669986544187656
ffc-a_32-04-05_32-04-05_32-04-05_32-04-05_04-02-05_04-02-05_04-02-05_04-02-05_04-02-05_04-02-05_04-02-05 1.1.1 61.723980305550015 -4.327950961180894
ffc-a_32-05-09_32-05-09_32-05-09_32-05-09_03-03-09_03-03-09_03-03-09_03-03-09_03-03-09_03-03-09_03-03-09 1.1.1 73.01727163044899 -3.975159029045353
ffc_31-03-12_31-03-12_17-12-12_None_None 1.1.2 16.382853946019004 -16.238148199245114
ffc_31-06-10_31-06-10_34-11-10_None_None 2.2.3 11.2350788615377 -15.665290307700088
ffd_28-06-10_31-06-10_34-11-10_34-11-10_None_None_None_None 1.1.2 14.664538150859997 -17.475427893478034
ffi-a_11-04-05_11-04-05_11-04-05_11-04-05_11-04-05_01-02-05_01-02-05_01-02-05_01-02-05_01-02-05_01-02-05_01-02-05_01-02-05 1.1.1 63.18380527232199 -4.89983676829046
fjh_12-03-12_25-12-12_25-12-12_None_None 1.1.1 12.871245325108 -14.413526661960647
fjh_17-10-08_31-02-08_31-02-08_None_None 1.1.2 13.653374222 -15.822269995848488
fjh_17-12-12_31-03-12_31-03-12_None_None 1.1.2 24.421711742697003 -20.053470003861623
fjh_33-11-02_31-01-02_31-01-02_None_None 1.1.2 18.56243618612 -21.21330544709221
fmj_17-12-12_17-12-12_31-03-12_31-03-12_31-03-12_None_None_None_None 1.1.1 18.049287757533 -17.458165028764363
fmj_33-11-02_33-11-02_31-01-02_31-01-02_31-01-02_None_None_None_None 2.2.1 14.0299039784725 -16.866332907974165
fmj_34-11-10_34-11-10_31-06-10_31-06-10_31-06-10_None_None_None_None 2.2.1 15.392032211584 -17.058775657325906
fss_12-03-12_12-03-12_12-03-12_12-03-12_06-12-12_06-12-12_06-12-12_06-12-12_06-12-12 1.1.3 10.774050122368656 -21.48939915078749
fss_12-03-12_12-03-12_12-03-12_12-03-12_10-12-12_10-12-12_10-12-12_10-12-12_10-12-12 1.1.3 10.01866959607361 -19.196377781189454
fss_17-10-08_17-10-08_17-10-08_17-10-08_01-02-08_01-02-08_01-02-08_01-02-08_01-02-08 1.1.4 7.639903135546 -19.407399969839847
fss_17-12-12_17-12-12_17-12-12_17-12-12_02-03-12_02-03-12_02-03-12_02-03-12_02-03-12 1.1.3 10.67197219586244 -24.53810958233576
fss_18-12-12_18-12-12_18-12-12_18-12-12_02-03-12_02-03-12_02-03-12_02-03-12_02-03-12 1.1.4 10.398478163192998 -21.3356450715849
fss_35-11-03_35-11-03_35-11-03_35-11-03_02-01-03_02-01-03_02-01-03_02-01-03_02-01-03 1.1.3 12.200179604137862 -25.81309343799729
fsv_11-02-08_11-02-08_11-02-08_11-02-08_11-02-08_06-10-08_06-10-08_06-10-08_06-10-08_06-10-08_06-10-08_06-10-08_06-10-08 1.1.4 8.071986994436752 -21.711497209349343
fsv_11-03-09_11-03-09_11-03-09_11-03-09_11-03-09_01-05-09_01-05-09_01-05-09_01-05-09_01-05-09_01-05-09_01-05-09_01-05-09 1.1.4 8.7638312319075 -18.404477512191683
fsv_12-03-09_12-03-09_12-03-09_12-03-09_12-03-09_02-05-09_02-05-09_02-05-09_02-05-09_02-05-09_02-05-09_02-05-09_02-05-09 1.1.4 8.991548076998999 -19.02957835653464
fsv_12-03-12_12-03-12_12-03-12_12-03-12_12-03-12_06-12-12_06-12-12_06-12-12_06-12-12_06-12-12_06-12-12_06-12-12_06-12-12 1.1.3 8.570144547244121 -30.660706648750587
fsv_12-03-12_12-03-12_12-03-12_12-03-12_12-03-12_10-12-12_10-12-12_10-12-12_10-12-12_10-12-12_10-12-12_10-12-12_10-12-12 1.1.3 10.884296646031844 -19.200369420565103
fsv_23-10-08_23-10-08_23-10-08_23-10-08_23-10-08_01-02-08_01-02-08_01-02-08_01-02-08_01-02-08_01-02-08_01-02-08_01-02-08 1.1.3 12.768988739241014 -16.71577503558187
fsv_23-12-12_23-12-12_23-12-12_23-12-12_23-12-12_01-03-12_01-03-12_01-03-12_01-03-12_01-03-12_01-03-12_01-03-12_01-03-12 1.1.3 16.693896263889 -19.586526821146396
fsv_23-12-12_23-12-12_23-12-12_23-12-12_23-12-12_03-03-12_03-03-12_03-03-12_03-03-12_03-03-12_03-03-12_03-03-12_03-03-12 1.1.3 15.259103884136856 -19.41033001048371
fsv_23-12-12_23-12-12_23-12-12_23-12-12_23-12-12_04-03-12_04-03-12_04-03-12_04-03-12_04-03-12_04-03-12_04-03-12_04-03-12 1.1.3 14.034918847375 -17.142976539295706
fsv_35-11-03_35-11-03_35-11-03_35-11-03_35-11-03_01-01-03_01-01-03_01-01-03_01-01-03_01-01-03_01-01-03_01-01-03_01-01-03 1.2.3 11.91234805502623 -26.62024615155233
fsz-a_35-11-03_35-11-03_35-11-03_35-11-03_35-11-03_01-01-03_01-01-03_01-01-03_01-01-03_01-01-03_01-01-03_01-01-03_01-01-03 1.1.3 13.846578513654514 -21.937716550206847
ftd_30-03-12_30-03-12_06-12-12_06-12-12_06-12-12_06-12-12_06-12-12_06-12-12_06-12-12 1.1.1 13.094199026402 -15.732855754747652
ftf_30-03-12_30-03-12_06-12-12_06-12-12_06-12-12_06-12-12_06-12-12_06-12-12_06-12-12 1.1.1 13.886038123526998 -15.20509157019006
fuy_30-03-12_30-03-12_06-12-12_06-12-12_06-12-12_06-12-12_06-12-12 1.1.1 15.078861325026004 -16.20941824578799
fve_30-03-12_30-03-12_06-12-12_06-12-12_06-12-12_06-12-12_06-12-12_06-12-12 1.1.1 13.768577178903998 -15.65584314902044
fvk_30-03-12_30-03-12_06-12-12_06-12-12_06-12-12_06-12-12_06-12-12 1.1.1 13.765231766435996 -15.017965392539756
fvn_30-03-12_30-03-12_06-12-12_06-12-12_06-12-12_06-12-12_06-12-12 1.1.2 15.61189604625 -16.8622398834188
fvu_30-03-12_30-03-12_06-12-12_06-12-12_06-12-12_06-12-12_06-12-12 1.1.2 14.1759733170385 -16.146049774153965
fvv_30-03-12_30-03-12_06-12-12_06-12-12_06-12-12_06-12-12_06-12-12_06-12-12 1.1.1 14.554190064644995 -15.95918136262856
fvw_30-03-12_30-03-12_06-12-12_06-12-12_06-12-12_06-12-12_06-12-12_06-12-12 1.1.1 14.064088062078 -15.64824567800236
fwa_31-02-08_31-02-08_31-02-08_07-10-08_06-10-08_06-10-08 2.1.4 11.628168973286252 -23.515280487720865
fwd_31-03-09_31-03-09_31-03-09_01-05-09_01-05-09_01-05-09_01-05-09_01-05-09 1.1.3 12.988124234868494 -19.147461109076115
fwd_31-03-09_31-03-09_31-03-09_03-05-09_03-05-09_03-05-09_03-05-09_03-05-09 1.1.3 12.203999336627293 -18.537504433620715
fwe_31-02-08_31-02-08_06-10-08_06-10-08_07-10-08 1.1.3 11.894956366582708 -23.256760903187025
fwe_31-02-08_31-02-08_06-10-08_07-10-08_06-10-08 1.1.3 12.68886719909574 -21.44321462768888
fwe_31-03-09_31-03-09_01-05-09_01-05-09_01-05-09 1.1.3 11.718967095177696 -19.414498318312607
fwe_31-03-12_31-03-12_06-12-12_06-12-12_07-12-12 1.1.3 11.24141003955 -25.539319835784084
fxt_11-03-12_06-12-12_06-12-12_06-12-12 1.2.4 16.993996733569496 -28.71246718101613
fxt_23-12-12_02-03-12_02-03-12_02-03-12 1.1.4 11.28198680915475 -19.97788675974796
fxt_35-11-03_01-01-03_02-01-03_02-01-03 1.1.3 11.487186054417409 -19.975189561258027
fxt_35-11-03_02-01-03_01-01-03_02-01-03 1.1.3 11.982043832290628 -19.49956181072762
fxt_35-11-03_02-01-03_02-01-03_01-01-03 1.1.3 11.060147442219195 -19.163685143474726
gee_31-03-12_17-12-12_31-03-12_None_None 1.1.1 20.713137609630003 -19.48401060225236
gsi_30-02-06_None_None 2.2.2 13.238784585765629 -17.8911127191854
gsi_30-03-12_06-12-12_06-12-12 1.1.1 14.93723911164 -15.990703607136158
gsi_30-03-12_06-12-12_07-12-12 1.1.1 13.595349754686 -15.871473094745816
gsi_30-03-12_07-12-12_06-12-12 1.1.1 14.265749733525 -15.40344678539329
gsi_30-03-12_07-12-12_07-12-12 1.1.1 12.806605164738 -15.787038888118191
gsi_30-03-12_08-12-12_08-12-12 1.1.1 11.289060340272002 -13.777712007006777
gsi_30-03-12_08-12-12_09-12-12 1.1.1 11.73154515904 -15.788838359626151
gwg-a_13-02-05_13-02-05_13-02-05_13-02-05_13-02-05_05-04-05_05-04-05_05-04-05_05-04-05_05-04-05_05-04-05_05-04-05_05-04-05 1.1.1 72.58459350144 -4.4892657847438295
gwg-a_13-02-06_13-02-06_13-02-06_13-02-06_13-02-06_05-02-06_05-02-06_05-02-06_05-02-06_05-02-06_05-02-06_05-02-06_05-02-06 1.1.1 74.67266748605601 -3.567474320644892
gwg-a_13-03-09_13-03-09_13-03-09_13-03-09_13-03-09_05-05-09_05-05-09_05-05-09_05-05-09_05-05-09_05-05-09_05-05-09_05-05-09 1.1.1 74.632282248188 -4.232809127251365
gwg-a_13-04-05_13-04-05_13-04-05_13-04-05_13-04-05_05-02-05_05-02-05_05-02-05_05-02-05_05-02-05_05-02-05_05-02-05_05-02-05 1.1.1 74.30658263296 -3.9329030425125295
gwg-a_14-02-05_14-02-05_14-02-05_14-02-05_14-02-05_05-04-05_05-04-05_05-04-05_05-04-05_05-04-05_05-04-05_05-04-05_05-04-05 1.1.1 65.883566768563 -4.231308726647307
gwg-a_14-02-06_14-02-06_14-02-06_14-02-06_14-02-06_05-02-06_05-02-06_05-02-06_05-02-06_05-02-06_05-02-06_05-02-06_05-02-06 1.1.1 69.33922395308001 -3.458562801750565
gwg-a_14-03-09_14-03-09_14-03-09_14-03-09_14-03-09_05-05-09_05-05-09_05-05-09_05-05-09_05-05-09_05-05-09_05-05-09_05-05-09 1.1.1 72.88280194432001 -3.974896199414267
gwg-a_14-04-05_14-04-05_14-04-05_14-04-05_14-04-05_05-02-05_05-02-05_05-02-05_05-02-05_05-02-05_05-02-05_05-02-05_05-02-05 1.1.1 72.35602060158 -4.058603791285182
gwg-a_14-05-09_14-05-09_14-05-09_14-05-09_14-05-09_05-03-09_05-03-09_05-03-09_05-03-09_05-03-09_05-03-09_05-03-09_05-03-09 1.1.1 75.14006111999998 -4.015000438408517
gwg-a_15-02-04_15-02-04_15-02-04_15-02-04_15-02-04_05-03-04_05-03-04_05-03-04_05-03-04_05-03-04_05-03-04_05-03-04_05-03-04 1.1.1 81.46233329943298 -3.563705826934136
gwg-a_15-02-05_15-02-05_15-02-05_15-02-05_15-02-05_03-04-05_03-04-05_03-04-05_03-04-05_03-04-05_03-04-05_03-04-05_03-04-05 1.1.1 75.819696941984 -3.760654793826775
gwg-a_15-02-05_15-02-05_15-02-05_15-02-05_15-02-05_05-04-05_05-04-05_05-04-05_05-04-05_05-04-05_05-04-05_05-04-05_05-04-05 1.1.1 90.51616360307402 -3.875696533617045
gwg-a_15-02-06_15-02-06_15-02-06_15-02-06_15-02-06_03-02-06_03-02-06_03-02-06_03-02-06_03-02-06_03-02-06_03-02-06_03-02-06 1.1.1 77.91298688688002 -3.675475282106127
gwg-a_15-02-06_15-02-06_15-02-06_15-02-06_15-02-06_05-02-06_05-02-06_05-02-06_05-02-06_05-02-06_05-02-06_05-02-06_05-02-06 1.1.1 98.96964066652 -3.5248242490297828
gwg-a_15-03-09_15-03-09_15-03-09_15-03-09_15-03-09_03-05-09_03-05-09_03-05-09_03-05-09_03-05-09_03-05-09_03-05-09_03-05-09 1.1.1 76.94958640383499 -3.5996353382419803
gwg-a_15-03-09_15-03-09_15-03-09_15-03-09_15-03-09_04-05-09_04-05-09_04-05-09_04-05-09_04-05-09_04-05-09_04-05-09_04-05-09 1.1.1 70.39584573691998 -3.588600930557592
gwg-a_15-03-09_15-03-09_15-03-09_15-03-09_15-03-09_05-05-09_05-05-09_05-05-09_05-05-09_05-05-09_05-05-09_05-05-09_05-05-09 1.1.1 99.2593630698 -3.317547703912185
gwg-a_15-04-05_15-04-05_15-04-05_15-04-05_15-04-05_03-02-05_03-02-05_03-02-05_03-02-05_03-02-05_03-02-05_03-02-05_03-02-05 1.1.1 75.305492249396 -3.79141910549707
gwg-a_15-04-05_15-04-05_15-04-05_15-04-05_15-04-05_04-02-05_04-02-05_04-02-05_04-02-05_04-02-05_04-02-05_04-02-05_04-02-05 1.1.1 67.354264458816 -3.879717826157355
gwg-a_15-04-05_15-04-05_15-04-05_15-04-05_15-04-05_05-02-05_05-02-05_05-02-05_05-02-05_05-02-05_05-02-05_05-02-05_05-02-05 1.1.1 100.002727648098 -3.768777303219703
gwg-a_15-05-09_15-05-09_15-05-09_15-05-09_15-05-09_03-03-09_03-03-09_03-03-09_03-03-09_03-03-09_03-03-09_03-03-09_03-03-09 1.1.1 76.124591439065 -3.536911123267619
gwg-a_15-05-09_15-05-09_15-05-09_15-05-09_15-05-09_04-03-09_04-03-09_04-03-09_04-03-09_04-03-09_04-03-09_04-03-09_04-03-09 1.1.1 69.64044773333998 -3.750064407234943
gwg-a_15-05-09_15-05-09_15-05-09_15-05-09_15-05-09_05-03-09_05-03-09_05-03-09_05-03-09_05-03-09_05-03-09_05-03-09_05-03-09 1.1.1 99.7575457362 -3.620139594296517
gwg-a_16-03-09_16-03-09_16-03-09_16-03-09_16-03-09_05-05-09_05-05-09_05-05-09_05-05-09_05-05-09_05-05-09_05-05-09_05-05-09 1.1.1 63.31125241610399 -3.982593081388069
gwg-a_16-04-05_16-04-05_16-04-05_16-04-05_16-04-05_05-02-05_05-02-05_05-02-05_05-02-05_05-02-05_05-02-05_05-02-05_05-02-05 1.1.1 62.992203360168 -4.236813509034238
gwg-a_16-05-09_16-05-09_16-05-09_16-05-09_16-05-09_05-03-09_05-03-09_05-03-09_05-03-09_05-03-09_05-03-09_05-03-09_05-03-09 1.1.1 62.884312385818 -4.273946588488909
gwg-a_32-03-09_32-03-09_32-03-09_32-03-09_32-03-09_05-05-09_05-05-09_05-05-09_05-05-09_05-05-09_05-05-09_05-05-09_05-05-09 1.1.1 69.04985256287999 -4.300069844155239
gwg-a_32-04-05_32-04-05_32-04-05_32-04-05_32-04-05_05-02-05_05-02-05_05-02-05_05-02-05_05-02-05_05-02-05_05-02-05_05-02-05 1.1.1 65.969112581082 -4.253079801317772
hbt_25-12-12_23-12-12_25-12-12_04-03-12_04-03-12_04-03-12 1.1.4 11.754096013052 -20.559883265937547
hbt_31-03-09_14-05-09_31-03-09_None_None_None 1.1.3 12.406282692923934 -20.333668587285093
hbt_31-03-12_12-03-12_31-03-12_10-12-12_10-12-12_10-12-12 1.1.4 11.5695678146505 -21.476600238292388
hbt_31-03-12_14-03-12_31-03-12_06-12-12_06-12-12_06-12-12 1.1.3 9.66315947114316 -19.081482546313584
hbt_31-05-09_12-03-09_31-05-09_None_None_None 1.1.3 11.15926495249802 -21.97891472230429
hbt_31-05-09_32-03-09_31-05-09_None_None_None 1.1.3 11.337303062793348 -20.07646483624976
hca_23-12-12_01-03-12_01-03-12 1.1.3 14.953364282543973 -18.053828654014698
hcb_11-02-05_01-04-05 2.2.5 12.628567321594652 -19.16970808411932
hcb_11-03-12_06-12-12 2.2.4 10.524599305476876 -24.16218067199028
hcb_11-04-05_01-02-05 2.2.5 9.76038741787725 -17.832403204570916
hcb_11-04-05_02-02-05 2.2.5 8.795151397136 -17.507368726539735
hcb_11-04-05_04-02-05 2.2.5 7.438860756642149 -16.441195673808302
hcb_11-05-09_01-03-09 2.2.5 9.320968809957998 -17.25459771899685
hcb_12-01-01_06-08-01 2.2.5 8.188657852259801 -24.42691856196754
hcb_12-03-09_02-05-09 2.2.4 9.061701733137376 -19.57598038773157
hcb_12-03-12_06-12-12 2.2.3 11.21178326558 -24.678897326291303
hcb_12-03-12_10-12-12 2.2.4 9.747241157656749 -19.497310188951605
hcb_17-10-08_01-02-08 2.2.4 9.19160209372275 -21.11231337103161
hcb_19-12-12_02-03-12 3.2.5 11.627887911994192 -22.880757189644218
hcb_20-12-12_02-03-12 1.2.5 9.9100095829308 -18.623627665506746
hcb_35-11-03_01-01-03 2.2.2 14.015525390454 -17.347164696781967
hha_15-02-05_15-02-05_15-02-05_15-02-05_03-04-05_03-04-05_03-04-05_03-04-05_03-04-05_03-04-05_03-04-05 1.1.1 62.467883777976006 -3.905780387648867
hha_15-02-06_15-02-06_15-02-06_15-02-06_03-02-06_03-02-06_03-02-06_03-02-06_03-02-06_03-02-06_03-02-06 1.1.1 65.54415453729 -3.942228189805656
hha_15-04-05_15-04-05_15-04-05_15-04-05_03-02-05_03-02-05_03-02-05_03-02-05_03-02-05_03-02-05_03-02-05 1.1.1 62.105165712292 -4.044453577442065
hha_15-05-09_15-05-09_15-05-09_15-05-09_03-03-09_03-03-09_03-03-09_03-03-09_03-03-09_03-03-09_03-03-09 1.1.1 63.45462942765 -3.9054289294888274
hna_11-03-12_11-03-12_06-12-12_06-12-12_06-12-12 1.1.4 9.760872906341998 -19.52688377773676
hna_12-02-05_11-02-05_01-04-05_01-04-05_01-04-05 1.1.5 12.166724118169205 -19.32914700095635
hna_12-03-09_12-03-09_02-05-09_02-05-09_02-05-09 1.1.4 10.553975473084003 -18.4520879710176
hna_12-03-12_11-03-12_06-12-12_06-12-12_06-12-12 1.1.4 9.999325144140752 -19.07692748003937
hna_12-03-12_12-03-12_06-12-12_06-12-12_06-12-12 1.1.3 10.06293889439 -21.86825170734528
hna_17-12-12_17-12-12_02-03-12_02-03-12_02-03-12 1.1.3 12.1116627793174 -25.31313527338413
hna_18-12-12_23-12-12_01-03-12_01-03-12_01-03-12 1.1.4 18.30195163492425 -22.376727082751987
hna_18-12-12_23-12-12_03-03-12_03-03-12_03-03-12 1.1.3 12.770614908707712 -17.69678657348208
hna_18-12-12_23-12-12_04-03-12_04-03-12_04-03-12 1.1.4 14.627863560750002 -20.014502285714023
hna_23-12-12_18-12-12_01-03-12_01-03-12_01-03-12 1.1.4 16.780744482172 -21.762505698562546
hna_23-12-12_18-12-12_03-03-12_03-03-12_03-03-12 1.1.4 12.594853679586 -19.245647150713506
hna_35-11-03_35-11-03_01-01-03_02-01-03_01-01-03 1.1.3 12.486745211710373 -21.930190839891004
hna_35-11-03_35-11-03_02-01-03_01-01-03_01-01-03 1.1.3 11.900957140489414 -23.049758266052766
hna_35-11-03_35-11-03_02-01-03_01-01-03_02-01-03 2.1.3 13.002802292283077 -24.455878642664544
hna_35-11-03_35-11-03_02-01-03_02-01-03_01-01-03 1.1.3 11.594209841791972 -21.269070757185688
hnb_11-03-12_11-03-12_06-12-12_07-12-12 2.2.3 12.52984122585768 -19.251810302713903
hnb_11-03-12_12-03-12_06-12-12_06-12-12 1.2.3 9.41406695662014 -19.15562804956034
hnb_12-03-12_12-03-12_06-12-12_06-12-12 1.1.3 9.412083374424348 -18.372050804239187
hnb_17-12-12_17-12-12_02-03-12_02-03-12 2.2.4 11.35561348474356 -30.415923083421674
hnb_18-12-12_23-12-12_02-03-12_02-03-12 2.1.3 12.254508763440938 -17.531000495236643
hnb_18-12-12_23-12-12_04-03-12_04-03-12 1.1.4 13.507859299692 -19.073116883471545
hnb_23-12-12_23-12-12_01-03-12_01-03-12 2.2.3 16.755395365925935 -16.413882633245926
hnb_35-11-03_35-11-03_02-01-03_02-01-03 2.2.3 10.210909072004398 -17.949857424911333
hnc_11-03-12_11-03-12_11-03-12_11-03-12_06-12-12_06-12-12_06-12-12_06-12-12_06-12-12_06-12-12_06-12-12 1.1.3 13.51444819609634 -24.645588279258263
hnc_11-04-05_11-04-05_11-04-05_11-04-05_02-02-05_02-02-05_02-02-05_02-02-05_02-02-05_02-02-05_02-02-05 1.1.4 8.880217686837002 -17.749166485576275
hnc_12-02-05_12-02-05_12-02-05_12-02-05_01-04-05_01-04-05_01-04-05_01-04-05_01-04-05_01-04-05_01-04-05 1.1.5 10.834180485363202 -20.72468760202862
hnc_12-03-12_12-03-12_12-03-12_12-03-12_06-12-12_06-12-12_06-12-12_06-12-12_06-12-12_06-12-12_06-12-12 1.1.3 10.455656114622483 -23.6682757293072
hnc_17-12-12_17-12-12_17-12-12_17-12-12_02-03-12_02-03-12_02-03-12_02-03-12_02-03-12_02-03-12_02-03-12 1.1.4 7.99313345841575 -29.06456321612476
hnc_18-12-12_18-12-12_18-12-12_18-12-12_02-03-12_02-03-12_02-03-12_02-03-12_02-03-12_02-03-12_02-03-12 1.1.4 10.790053653713 -20.133094712919576
hnc_23-12-12_23-12-12_23-12-12_23-12-12_01-03-12_01-03-12_01-03-12_01-03-12_01-03-12_01-03-12_01-03-12 1.1.3 17.678608695048002 -19.15281879435059
hnc_35-11-03_35-11-03_35-11-03_35-11-03_01-01-03_01-01-03_01-01-03_01-01-03_01-01-03_01-01-03_01-01-03 1.1.3 12.958135470375568 -22.920347414024675
hnc_35-11-03_35-11-03_35-11-03_35-11-03_02-01-03_02-01-03_02-01-03_02-01-03_02-01-03_02-01-03_02-01-03 1.1.3 11.847437713381767 -25.889659310919463
hnd_11-03-09_11-03-09_11-03-09_11-03-09_11-03-09_11-03-09_02-05-09_02-05-09_02-05-09_02-05-09_02-05-09_02-05-09_02-05-09_02-05-09_02-05-09_02-05-09 1.1.5 10.3865791055776 -20.24784389881324
hnd_12-02-05_12-02-05_12-02-05_12-02-05_12-02-05_12-02-05_01-04-05_01-04-05_01-04-05_01-04-05_01-04-05_01-04-05_01-04-05_01-04-05_01-04-05_01-04-05 1.1.5 11.449801247817998 -19.38098763445896
hnd_12-03-12_12-03-12_12-03-12_12-03-12_12-03-12_12-03-12_06-12-12_06-12-12_06-12-12_06-12-12_06-12-12_06-12-12_06-12-12_06-12-12_06-12-12_06-12-12 1.1.3 10.574682602158306 -23.11601394511964
hnd_12-03-12_12-03-12_12-03-12_12-03-12_12-03-12_12-03-12_10-12-12_10-12-12_10-12-12_10-12-12_10-12-12_10-12-12_10-12-12_10-12-12_10-12-12_10-12-12 1.1.3 9.998868780893 -17.028130267832573
hnd_23-12-12_23-12-12_23-12-12_23-12-12_23-12-12_23-12-12_01-03-12_01-03-12_01-03-12_01-03-12_01-03-12_01-03-12_01-03-12_01-03-12_01-03-12_01-03-12 1.1.3 17.575503796561005 -19.19391904868916
hnd_23-12-12_23-12-12_23-12-12_23-12-12_23-12-12_23-12-12_03-03-12_03-03-12_03-03-12_03-03-12_03-03-12_03-03-12_03-03-12_03-03-12_03-03-12_03-03-12 1.1.3 14.048661081238002 -17.74327612791281
hnd_23-12-12_23-12-12_23-12-12_23-12-12_23-12-12_23-12-12_04-03-12_04-03-12_04-03-12_04-03-12_04-03-12_04-03-12_04-03-12_04-03-12_04-03-12_04-03-12 1.1.3 13.665093550250852 -15.715032188151127
hnd_35-11-03_35-11-03_35-11-03_35-11-03_35-11-03_35-11-03_01-01-03_01-01-03_01-01-03_01-01-03_01-01-03_01-01-03_01-01-03_01-01-03_01-01-03_01-01-03 1.1.2 14.081330857233995 -16.950744375416814
hnd_35-11-03_35-11-03_35-11-03_35-11-03_35-11-03_35-11-03_02-01-03_02-01-03_02-01-03_02-01-03_02-01-03_02-01-03_02-01-03_02-01-03_02-01-03_02-01-03 1.1.3 11.78015174258713 -23.959354988129444
hne_11-03-12_11-03-12_11-03-12_06-12-12_06-12-12_06-12-12_06-12-12_06-12-12 1.1.4 9.7659985868955 -20.275866915144604
hne_17-10-08_17-10-08_17-10-08_01-02-08_01-02-08_01-02-08_01-02-08_01-02-08 1.1.4 7.886593746354498 -20.33279876603871
hne_17-12-12_17-12-12_17-12-12_02-03-12_02-03-12_02-03-12_02-03-12_02-03-12 1.2.4 6.50122855483 -31.469628983484323
hne_23-12-12_23-12-12_23-12-12_03-03-12_03-03-12_03-03-12_03-03-12_03-03-12 1.1.3 13.71339618945911 -16.886220366175927
hne_23-12-12_23-12-12_23-12-12_04-03-12_04-03-12_04-03-12_04-03-12_04-03-12 1.1.3 13.434805084207664 -18.57848420261707
hnf_11-02-05_11-02-05_11-02-05_11-02-05_01-04-05_01-04-05_01-04-05_01-04-05 1.1.5 12.659344028942 -22.42725160308304
hnf_11-03-12_11-03-12_11-03-12_11-03-12_06-12-12_06-12-12_06-12-12_06-12-12 1.1.4 10.159098857036998 -23.754910922839557
hnf_12-03-12_12-03-12_12-03-12_12-03-12_06-12-12_06-12-12_06-12-12_06-12-12 1.1.3 10.776316566381418 -23.073800219085477
hnf_12-03-12_12-03-12_12-03-12_12-03-12_10-12-12_10-12-12_10-12-12_10-12-12 1.1.3 10.212997589035124 -18.414853426662475
hnf_17-10-08_17-10-08_17-10-08_17-10-08_01-02-08_01-02-08_01-02-08_01-02-08 1.1.4 8.09992525021975 -20.780921144775345
hnf_17-12-12_17-12-12_17-12-12_17-12-12_01-03-12_01-03-12_01-03-12_01-03-12 1.1.4 8.066769769557 -23.29003373515964
hnf_17-12-12_17-12-12_17-12-12_17-12-12_02-03-12_02-03-12_02-03-12_02-03-12 1.1.3 10.309691030071276 -28.511920327790524
hnf_23-10-08_23-10-08_23-10-08_23-10-08_02-02-08_02-02-08_02-02-08_02-02-08 1.1.3 12.375571842132889 -18.40327119151193
hnf_35-11-03_35-11-03_35-11-03_35-11-03_02-01-03_02-01-03_02-01-03_02-01-03 2.1.3 11.821440907888762 -26.499048100960263
htb-a_17-12-12_17-12-12_01-03-12_01-03-12_01-03-12_01-03-12_01-03-12 1.1.4 7.743063328447501 -21.01093788233811
htb-a_23-12-12_23-12-12_03-03-12_03-03-12_03-03-12_03-03-12_03-03-12 1.1.3 14.649002688468022 -18.07824227267848
htb-a_35-11-03_35-11-03_02-01-03_02-01-03_02-01-03_02-01-03_02-01-03 1.1.3 11.456974902359995 -21.016232290501144
htb_31-02-05_02-04-05_01-04-05 1.1.3 8.620604554375857 -17.349444361942407
htb_31-02-08_07-10-08_06-10-08 2.2.3 12.946960755617736 -21.299079584600182
iab_25-12-12_25-12-12_12-03-12_None_None 1.1.1 12.970295360639 -13.876275024134364
iab_31-01-02_31-01-02_33-11-02_None_None 2.2.1 19.883747273873748 -21.560019206898517
iab_31-03-12_31-03-12_17-12-12_None_None 2.2.1 25.27710440180425 -21.006542037945213
iab_31-06-10_31-06-10_34-11-10_None_None 2.2.1 21.378411289368 -22.448072552595004
iab_31-07-11_31-07-11_36-11-11_None_None 2.2.1 16.228665929834747 -20.58859789419097
icf_30-03-12_30-03-12_06-12-12_06-12-12_06-12-12_06-12-12 1.1.1 22.31720542062901 -21.472948331382277
ict_30-03-12_06-12-12_06-12-12_07-12-12 1.1.1 15.999030415942 -19.24900376631982
ict_30-03-12_06-12-12_07-12-12_06-12-12 1.1.1 17.584959871782 -19.928425994362943
ict_30-03-12_06-12-12_07-12-12_07-12-12 1.1.1 15.983982360514997 -20.343363588957335
ict_30-03-12_07-12-12_06-12-12_06-12-12 1.1.1 15.993422184735 -19.72700126756248
ict_30-03-12_07-12-12_06-12-12_07-12-12 1.1.1 15.018583946547997 -20.43404870947
ict_30-03-12_07-12-12_07-12-12_06-12-12 1.1.1 16.066445733966003 -19.60424901924519
ict_30-03-12_07-12-12_07-12-12_07-12-12 1.1.1 14.385439998606 -19.945580759162745
ict_30-03-12_08-12-12_08-12-12_08-12-12 1.1.1 12.447573195564 -18.2931666889674
ict_30-03-12_09-12-12_09-12-12_08-12-12 1.1.1 13.879130099766 -19.36518490343896
iph_15-02-05_15-02-05_05-04-05_05-04-05_05-04-05 1.1.1 63.96333198314401 -4.344982017720079
[...]
uox_30-03-12_07-12-12_07-12-12_07-12-12 1.1.1 13.013899047783005 -16.938910601237623
uoy_30-03-12_06-12-12_06-12-12_06-12-12_06-12-12 2.2.1 13.764395421034 -16.120438951533693
uoy_30-03-12_07-12-12_07-12-12_07-12-12_07-12-12 2.2.1 10.910043643190996 -15.72011291244665
uoz_30-03-12_06-12-12_06-12-12_06-12-12 1.1.2 16.985185332508003 -23.00929574671189
uoz_30-03-12_06-12-12_06-12-12_07-12-12 1.1.2 15.160829677824 -22.292864868753043
uoz_30-03-12_07-12-12_06-12-12_07-12-12 1.1.2 13.718783539748 -23.596928563214146
uoz_30-03-12_07-12-12_07-12-12_06-12-12 1.1.2 14.406823718784 -22.52421787120192
uoz_30-03-12_08-12-12_08-12-12_08-12-12 1.1.2 11.8056770460135 -15.198216546972652
uoz_30-03-12_09-12-12_09-12-12_09-12-12 1.1.2 10.436903269245 -16.73787218847835
upa_30-03-12_08-12-12_08-12-12_08-12-12 2.2.1 16.60708255923575 -23.20070130607502
upb_30-03-12_06-12-12_06-12-12_06-12-12 2.2.1 16.772752032712 -20.455334241932952
upb_30-03-12_06-12-12_06-12-12_07-12-12 1.2.1 16.0896290462875 -20.49785909082344
upb_30-03-12_06-12-12_07-12-12_06-12-12 2.2.1 15.072419824176 -20.807424702122237
upb_30-03-12_06-12-12_07-12-12_07-12-12 2.2.1 13.9430907331905 -20.34824158782311
upb_30-03-12_07-12-12_06-12-12_06-12-12 1.2.1 16.101596044462504 -18.9838398905518
upb_30-03-12_07-12-12_06-12-12_07-12-12 2.2.1 14.667008873663995 -20.497622996648907
upb_30-03-12_07-12-12_07-12-12_06-12-12 2.2.1 13.993138465369 -20.87374203048143
upb_30-03-12_07-12-12_07-12-12_07-12-12 1.2.1 13.064075301816 -19.16806592231351
upb_30-03-12_08-12-12_08-12-12_08-12-12 1.1.1 14.357075780501996 -16.237751064631023
usm-d_30-04-05_30-04-05_11-04-05_11-04-05_01-02-05_01-02-05_01-02-05_01-02-05_01-02-05 1.1.3 16.684283449824353 -22.603988734566794
usm-d_30-04-05_30-04-05_11-04-05_11-04-05_02-02-05_02-02-05_02-02-05_02-02-05_02-02-05 1.1.3 14.54604255759333 -19.11197719521293
usm-d_30-04-05_30-04-05_11-04-05_11-04-05_04-02-05_04-02-05_04-02-05_04-02-05_04-02-05 1.1.3 11.578993404928315 -16.777191968728324
usm-d_30-04-05_30-04-05_12-04-05_12-04-05_03-02-05_03-02-05_03-02-05_03-02-05_03-02-05 1.1.3 12.797644356928346 -16.525561747881863
utb_11-03-12_06-12-12_06-12-12 1.1.2 19.76935561173 -21.351970362397616
utb_11-03-12_06-12-12_07-12-12 1.1.1 15.785620075665 -18.056326755434736
utb_11-03-12_07-12-12_06-12-12 1.1.1 14.282897595848 -16.136257101968397
utb_11-03-12_07-12-12_07-12-12 2.1.1 14.478398514539998 -20.35999848673364
utb_11-04-05_01-02-05_02-02-05 1.1.2 14.992752653271005 -17.665398419211943
utb_11-04-05_03-02-05_04-02-05 1.1.1 11.836162430069995 -17.994072923597354
utb_12-03-09_02-05-09_01-05-09 1.1.2 13.0310690652885 -17.44862498721757
utb_23-08-01_01-01-01_01-01-01 1.3.1 12.94634018592912 -17.560489049173846
utb_23-08-01_02-01-01_01-01-01 3.1.1 12.62137838332407 -16.346006790615732
utb_23-08-01_02-01-01_02-01-01 3.1.1 13.64989818452765 -19.592541360023336
utb_23-10-08_02-02-08_02-02-08 3.1.1 15.520289344956154 -20.516689022629865
utc_11-03-12_08-12-12_08-12-12_08-12-12 1.1.1 12.289405617845 -14.29393010736056
utc_17-12-12_02-03-12_02-03-12_02-03-12 1.1.1 14.605143183939 -18.5507112651545
utc_36-11-11_01-07-11_02-07-11_01-07-11 1.1.1 8.61244704442 -14.61048382199949
utc_36-11-11_02-07-11_01-07-11_02-07-11 1.1.1 8.845262681812002 -15.302518488544704
utj_12-03-12_06-12-12_06-12-12_06-12-12 1.1.1 12.902694618808 -13.41576158998479
utj_17-12-12_02-03-12_02-03-12_02-03-12 1.1.1 12.887182704398 -13.860898590926816
utj_34-11-10_01-06-10_01-06-10_02-06-10 2.2.2 11.02145710554375 -15.197151531072874
utk_12-03-12_06-12-12_06-12-12_06-12-12 1.1.2 15.448908886148004 -15.30712151367088
utk_12-03-12_09-12-12_09-12-12_09-12-12 1.1.2 12.923844836889 -17.407717607872836
utk_17-12-12_01-03-12_01-03-12_01-03-12 1.1.2 15.078963617377502 -14.231066073573828
utk_17-12-12_02-03-12_02-03-12_02-03-12 1.1.2 14.858003175464498 -16.01906854270075
utk_34-11-10_02-06-10_02-06-10_01-06-10 2.2.2 10.482008213481752 -18.756415732703324
utk_34-11-10_02-06-10_02-06-10_02-06-10 2.2.2 14.357934689385 -18.069087491361586
utk_35-11-03_01-01-03_01-01-03_01-01-03 2.2.2 10.825691974434 -18.102173418810864
utk_35-11-03_02-01-03_02-01-03_01-01-03 3.3.2 8.12863654559006 -30.73206761497012
utm_12-03-12_06-12-12_06-12-12_06-12-12 2.1.1 16.9685486443215 -17.204637042630303
utm_12-03-12_07-12-12_07-12-12_07-12-12 2.1.1 13.100324213468005 -16.917507619951767
utm_12-03-12_09-12-12_09-12-12_09-12-12 2.1.1 12.252146043867 -20.53391710882105
utm_17-12-12_01-03-12_01-03-12_01-03-12 1.1.1 17.382365606277002 -16.850794397567757
utm_17-12-12_02-03-12_02-03-12_02-03-12 1.1.1 12.591559632839004 -14.322651918393476
utm_34-11-10_01-06-10_02-06-10_02-06-10 1.1.1 10.09102533979 -14.709192953972032
utm_34-11-10_02-06-10_02-06-10_02-06-10 1.1.1 10.400392290148002 -15.219354507536789
utm_35-11-03_01-01-03_02-01-03_02-01-03 1.3.1 9.856539938851736 -27.55660239246525
utm_35-11-03_02-01-03_01-01-03_02-01-03 3.1.1 9.52256677808056 -27.189295397269905
utn_11-03-12_06-12-12_06-12-12_06-12-12 1.1.2 20.351317496112003 -17.858359197820178
utn_11-03-12_07-12-12_07-12-12_07-12-12 1.1.2 17.684889726672 -17.652777956766815
utn_11-03-12_09-12-12_09-12-12_09-12-12 1.1.1 10.74247970079 -17.807003129303485
utn_12-03-12_06-12-12_06-12-12_06-12-12 1.1.2 19.243963880466502 -20.022403677802934
utn_12-03-12_07-12-12_07-12-12_07-12-12 1.1.1 13.420298781044004 -19.949991427589733
utn_12-03-12_08-12-12_08-12-12_08-12-12 1.1.1 12.529834082880004 -17.573253245623082
utn_12-03-12_09-12-12_09-12-12_09-12-12 1.1.1 10.497592098762 -17.240607805778428
utn_17-10-08_02-02-08_02-02-08_02-02-08 1.1.2 13.1852721552775 -18.477288990843032
utn_17-12-12_01-03-12_01-03-12_01-03-12 1.1.2 23.045454051655497 -17.420805261048844
utn_17-12-12_02-03-12_02-03-12_02-03-12 1.1.1 14.32253497637 -19.267048103533984
utn_34-11-10_01-06-10_02-06-10_01-06-10 1.1.2 11.578179360582 -20.255568884338427
utn_34-11-10_02-06-10_02-06-10_01-06-10 1.1.2 11.556767472967 -22.13010797103782
utn_34-11-10_02-06-10_02-06-10_02-06-10 1.1.2 10.671100268468 -25.149877466991317
utn_35-11-03_01-01-03_01-01-03_01-01-03 1.1.2 11.428331512314 -17.374719362738634
utn_35-11-03_01-01-03_01-01-03_02-01-03 1.1.2 10.822482008240002 -17.54781057667682
utn_35-11-03_01-01-03_02-01-03_01-01-03 1.1.2 11.90268858152 -18.19565409498796
utn_35-11-03_01-01-03_02-01-03_02-01-03 1.1.2 10.921341387606002 -18.859120166917894
utn_35-11-03_02-01-03_01-01-03_01-01-03 1.1.2 11.149606421539998 -17.010090454344816
utn_35-11-03_02-01-03_01-01-03_02-01-03 1.1.2 10.4941631719615 -18.200666120611725
utn_35-11-03_02-01-03_02-01-03_01-01-03 1.1.2 11.8532522545125 -18.47124010424339
utn_35-11-03_02-01-03_02-01-03_02-01-03 1.1.2 10.577668886276 -18.29285218900848
utn_36-11-11_02-07-11_01-07-11_01-07-11 1.1.2 8.851808821737 -17.41408065911836
uto_12-03-12_06-12-12_06-12-12_06-12-12 1.1.1 14.017542578403 -14.849861057195174
uto_17-12-12_01-03-12_01-03-12_01-03-12 1.1.1 15.647519880477002 -14.911393635844282
uto_17-12-12_02-03-12_02-03-12_02-03-12 1.1.1 14.469416879849 -17.261180000482756
uto_33-11-02_01-01-02_01-01-02_01-01-02 2.2.1 12.347013472836002 -14.44374869405663
uto_33-11-02_01-01-02_02-01-02_01-01-02 2.2.1 10.941956181260998 -14.713564928701922
uto_33-11-02_01-01-02_02-01-02_02-01-02 2.2.1 10.8245996904225 -15.014128405795407
uto_33-11-02_02-01-02_01-01-02_01-01-02 2.2.1 12.032051657868 -15.8573325159186
uto_33-11-02_02-01-02_01-01-02_02-01-02 1.2.1 11.257818167066002 -17.290626241520915
uto_33-11-02_02-01-02_02-01-02_01-01-02 2.2.1 11.177212564172253 -15.595564675394442
uto_33-11-02_02-01-02_02-01-02_02-01-02 2.2.1 11.59332151518 -16.17723668692089
uto_34-11-10_01-06-10_01-06-10_01-06-10 2.2.1 11.716546439784 -14.16958777627211
uto_34-11-10_01-06-10_01-06-10_02-06-10 2.2.1 11.980484800275752 -15.000568798528038
uto_34-11-10_01-06-10_02-06-10_01-06-10 2.2.1 10.081603124921248 -14.212381204292818
uto_34-11-10_01-06-10_02-06-10_02-06-10 1.1.1 10.170286617371 -14.606970888298378
uto_34-11-10_02-06-10_01-06-10_01-06-10 2.2.1 11.95994154378075 -14.773113487627343
uto_34-11-10_02-06-10_01-06-10_02-06-10 2.2.1 13.134007746621752 -16.020928830773315
uto_34-11-10_02-06-10_02-06-10_01-06-10 2.2.1 10.341822218106 -16.035695297063544
uto_34-11-10_02-06-10_02-06-10_02-06-10 1.1.1 12.13500572046 -17.12615472581606
utp_17-10-08_01-02-08_01-02-08_01-02-08 1.1.9 8.810807944739862 -22.714465828880943
utp_17-12-12_02-03-12_02-03-12_02-03-12 1.1.6 12.783890163564044 -27.464783946866422
utp_34-11-10_02-06-10_02-06-10_01-06-10 1.2.3 17.47849180663105 -19.78870243400313
utp_34-11-10_02-06-10_02-06-10_02-06-10 1.2.3 13.912307709903002 -17.71249905284542
utp_35-11-03_01-01-03_02-01-03_02-01-03 1.1.4 14.208811031456998 -22.683118654623453
utq_12-03-12_06-12-12_06-12-12_06-12-12 1.2.1 16.254272238663006 -15.408421443748884
utq_12-03-12_07-12-12_07-12-12_07-12-12 1.2.1 14.57876092028 -16.054113766983324
utq_12-03-12_09-12-12_09-12-12_09-12-12 1.3.1 11.502988697244296 -18.26351425014017
utq_17-12-12_02-03-12_02-03-12_02-03-12 1.2.1 14.556182561229004 -15.673358428786631
utq_33-11-02_01-01-02_01-01-02_02-01-02 1.2.1 14.196655296216 -16.096372671008904
utq_33-11-02_01-01-02_02-01-02_01-01-02 1.2.1 13.165181677692 -15.519051619697365
utq_35-11-03_01-01-03_01-01-03_01-01-03 2.2.1 12.1496806488195 -25.9000248767868
utq_35-11-03_01-01-03_01-01-03_02-01-03 2.2.1 13.404676845140004 -26.19864024370046
utq_35-11-03_01-01-03_02-01-03_01-01-03 2.2.1 10.85890649965 -28.31967082944871
utq_35-11-03_01-01-03_02-01-03_02-01-03 2.2.1 10.30656528040025 -26.482508094815163
utq_35-11-03_02-01-03_01-01-03_01-01-03 2.2.1 10.428540693500002 -28.558098098289783
utq_35-11-03_02-01-03_01-01-03_02-01-03 2.2.1 12.348133396385249 -25.308997695237277
utq_35-11-03_04-01-03_04-01-03_03-01-03 3.1.1 10.84672492569918 -21.52732053238845
var_12-03-12_12-03-12_12-03-12_06-12-12_06-12-12_06-12-12_06-12-12_06-12-12 1.1.3 9.87556002822601 -21.04594039666508
var_18-12-12_18-12-12_18-12-12_01-03-12_01-03-12_01-03-12_01-03-12_01-03-12 3.1.6 10.149706824119637 -26.208008758126013
var_23-12-12_23-12-12_23-12-12_01-03-12_01-03-12_01-03-12_01-03-12_01-03-12 1.1.3 16.73341575123047 -19.616876259732475
var_35-11-03_35-11-03_35-11-03_01-01-03_01-01-03_01-01-03_01-01-03_01-01-03 1.1.3 11.08080937592782 -20.07663820061253
vbb_31-03-12_06-12-12_06-12-12_06-12-12_06-12-12 6.1.1 11.833739055452718 -23.447092819938465
wiw_12-03-12_06-12-12_06-12-12_06-12-12 1.1.1 15.866244178356 -15.138737673021756
wiw_12-03-12_07-12-12_07-12-12_07-12-12 1.1.1 13.60141779722 -16.811093427275658
wiw_17-12-12_01-03-12_01-03-12_01-03-12 1.1.1 19.473029942808 -15.17649611633319
wiw_17-12-12_02-03-12_02-03-12_02-03-12 1.1.1 13.332166696215 -15.219927139170554
wix_11-03-12_06-12-12_06-12-12_06-12-12 2.1.1 15.298185029324998 -15.578363043817816
wix_12-03-12_06-12-12_06-12-12_06-12-12 1.1.2 15.734947686865 -15.356154234663002
wix_17-12-12_02-03-12_02-03-12_02-03-12 1.1.2 15.0980548968975 -15.60957724534912
wix_34-11-10_02-06-10_02-06-10_02-06-10 2.2.2 10.145302074936 -18.01700703718313
wix_34-11-10_04-06-10_03-06-10_03-06-10 2.2.1 13.676937559332 -16.95684170330344
wix_35-11-03_01-01-03_02-01-03_01-01-03 1.3.2 12.385461336759 -21.06320161718645
wix_35-11-03_02-01-03_02-01-03_01-01-03 1.3.2 11.35415563750292 -19.005228738659977
wix_35-11-03_04-01-03_04-01-03_03-01-03 1.3.1 13.591069736838596 -18.106630565741217
wiy_12-03-12_06-12-12_06-12-12_06-12-12 1.1.6 9.820352924813951 -20.367095818968583
wiy_35-11-03_01-01-03_01-01-03_01-01-03 1.1.4 14.804151958128 -19.07302787999925
wiy_35-11-03_03-01-03_04-01-03_04-01-03 2.2.1 11.904711505197 -18.284051895251068
wiz_11-03-12_06-12-12_06-12-12_06-12-12 2.2.1 15.302916426756743 -15.164793270188929
wiz_11-03-12_07-12-12_07-12-12_07-12-12 2.2.1 14.133369231918747 -14.777277110283752
wiz_12-03-12_06-12-12_06-12-12_06-12-12 2.2.1 17.768167771805 -17.60638139373519
wiz_12-03-12_07-12-12_07-12-12_07-12-12 2.2.1 16.303710818742 -16.255092948760115
wiz_17-10-08_02-02-08_02-02-08_02-02-08 2.2.1 10.81624400379 -14.972305111830082
wiz_17-12-12_01-03-12_01-03-12_01-03-12 2.2.1 20.195181371186248 -17.324618203704855
wiz_17-12-12_02-03-12_02-03-12_02-03-12 2.2.1 15.444704452436252 -16.70757200359725
wiz_33-11-02_01-01-02_01-01-02_01-01-02 2.2.1 18.013606466304 -17.973053219595577
wiz_33-11-02_01-01-02_01-01-02_02-01-02 3.3.1 15.289122895867992 -21.50057170184176
wiz_33-11-02_01-01-02_02-01-02_01-01-02 3.3.1 13.439327717242664 -20.77046289972147
wiz_33-11-02_01-01-02_02-01-02_02-01-02 3.3.1 14.37122461502403 -22.788493195263246
wiz_33-11-02_02-01-02_01-01-02_01-01-02 2.2.1 17.054781489825498 -19.724077597799923
wiz_33-11-02_02-01-02_02-01-02_01-01-02 3.3.1 14.427154437411373 -22.584586274906005
wiz_33-11-02_02-01-02_02-01-02_02-01-02 3.3.1 14.436855272441976 -25.672404853456644
wiz_34-11-10_01-06-10_01-06-10_01-06-10 3.3.1 16.306162549795076 -21.226073051218147
wiz_34-11-10_01-06-10_02-06-10_01-06-10 3.3.1 13.635852589341376 -20.644215946442152
wiz_34-11-10_01-06-10_02-06-10_02-06-10 3.3.1 13.588598956229324 -24.07492956533436
wiz_34-11-10_02-06-10_01-06-10_01-06-10 2.2.1 17.64985294204925 -19.95186767336945
wiz_34-11-10_02-06-10_01-06-10_02-06-10 3.3.1 13.955943730889754 -23.702339568944108
wiz_34-11-10_02-06-10_02-06-10_01-06-10 2.2.1 16.780519440833 -21.70874065521188
wiz_34-11-10_02-06-10_02-06-10_02-06-10 3.3.1 13.92750142423951 -24.135247755302267
wiz_36-11-11_01-07-11_01-07-11_02-07-11 2.2.1 9.999189237851 -16.547902424789243
wiz_36-11-11_02-07-11_01-07-11_01-07-11 2.2.1 9.0197739609835 -15.153461526487233
wiz_36-11-11_02-07-11_01-07-11_02-07-11 2.2.1 9.724967566528 -17.606592335736647
wiz_36-11-11_02-07-11_02-07-11_02-07-11 2.2.1 10.32126264812025 -19.29089225038776
wje_30-03-12_06-12-12_06-12-12_06-12-12_06-12-12 1.1.1 16.605109998656 -17.058802244013208
wje_30-03-12_07-12-12_07-12-12_07-12-12_07-12-12 1.1.1 13.456024601812 -16.664925147794722
wje_30-03-12_09-12-12_09-12-12_09-12-12_09-12-12 1.1.1 11.402577451519 -17.280577998583464
wut_30-03-12_30-03-12_06-12-12_06-12-12_06-12-12 1.1.1 19.434580295825 -19.503278355006447
wut_30-03-12_30-03-12_06-12-12_06-12-12_07-12-12 1.1.1 18.775867201968 -18.735282621413464
wut_30-03-12_30-03-12_06-12-12_07-12-12_06-12-12 1.1.1 17.85001829251 -18.659240969487733
wut_30-03-12_30-03-12_06-12-12_07-12-12_07-12-12 1.1.1 16.851422129592 -18.599868894796977
wut_30-03-12_30-03-12_07-12-12_06-12-12_06-12-12 1.1.1 17.992406713296003 -18.094292318416272
wut_30-03-12_30-03-12_07-12-12_06-12-12_07-12-12 1.1.1 17.025625304823 -19.415347151829543
wut_30-03-12_30-03-12_07-12-12_07-12-12_06-12-12 1.1.1 16.392031829769998 -18.425645126626257
wut_30-03-12_30-03-12_07-12-12_07-12-12_07-12-12 1.1.1 15.03463415364 -18.836464152281145
wut_30-03-12_30-03-12_08-12-12_08-12-12_08-12-12 1.1.1 13.170982552648 -15.709634718088523
wut_30-03-12_30-03-12_08-12-12_09-12-12_09-12-12 1.1.1 12.054766912515 -17.160913703067457
wut_30-03-12_30-03-12_09-12-12_08-12-12_08-12-12 1.1.1 13.625775399852 -16.88690115135962
wut_30-03-12_30-03-12_09-12-12_08-12-12_09-12-12 1.1.1 12.323475060443998 -15.860642627040187
wut_30-03-12_30-03-12_09-12-12_09-12-12_08-12-12 1.1.1 11.706610352751 -16.86908688409104
xca_30-03-12_12-03-12_06-12-12_06-12-12_06-12-12_06-12-12 1.2.1 12.399159046084998 -13.639427452970828
yac_31-01-02_31-01-02_31-01-02_33-11-02_33-11-02_33-11-02_33-11-02_33-11-02_None_None_None_None_None_None_None 2.2.1 13.567229893420496 -15.24700989092566
yac_31-03-12_31-03-12_31-03-12_17-12-12_17-12-12_17-12-12_17-12-12_17-12-12_None_None_None_None_None_None_None 1.1.1 16.130346064429 -15.976527231391334
yac_31-06-10_31-06-10_31-06-10_34-11-10_34-11-10_34-11-10_34-11-10_34-11-10_None_None_None_None_None_None_None 2.2.1 14.8370866336 -16.94082229722697
yao_31-01-02_31-01-02_33-11-02_33-11-02_33-11-02_None_None_None_None 2.2.1 13.645896449168749 -15.718161195670165
yao_31-03-12_31-03-12_17-12-12_17-12-12_17-12-12_None_None_None_None 1.1.1 16.625308826921 -17.046343906846666
yao_31-06-10_31-06-10_34-11-10_34-11-10_34-11-10_None_None_None_None 2.2.1 15.022068492928002 -16.164949806472386
yav-d-a_15-02-05_15-02-05_15-02-05_05-04-05_05-04-05_05-04-05_05-04-05 1.1.1 63.795850988544 -4.349894172677696
yav-d-a_15-02-06_15-02-06_15-02-06_05-02-06_05-02-06_05-02-06_05-02-06 1.1.1 63.486538918047 -3.4689673888089128
yav-d-a_15-03-09_15-03-09_15-03-09_05-05-09_05-05-09_05-05-09_05-05-09 1.1.1 68.963359818178 -3.4819100319820286
yav-d-a_15-04-05_15-04-05_15-04-05_05-02-05_05-02-05_05-02-05_05-02-05 1.1.1 66.32920369152 -4.153981176195267
yav-d-a_15-05-09_15-05-09_15-05-09_05-03-09_05-03-09_05-03-09_05-03-09 1.1.1 68.167896753971 -4.138060864050299
yug_30-03-12_30-03-12_06-12-12_06-12-12_06-12-12_06-12-12_06-12-12_06-12-12 1.1.2 13.488120617755996 -14.95676885471191
zni_30-02-05_01-04-05_01-04-05_01-04-05 1.1.1 12.996052456640005 -12.366568942434304
zni_30-02-08_06-10-08_06-10-08_07-10-08 1.1.1 9.574716017412 -19.959290273430664
zni_30-02-08_06-10-08_07-10-08_06-10-08 1.1.1 10.534781003189998 -19.64809366579336
zni_30-02-08_08-10-08_09-10-08_08-10-08 1.1.1 13.007039944976 -18.604285207542045
zni_30-02-08_09-10-08_09-10-08_08-10-08 1.1.1 13.902799768139996 -17.988711376849633
zni_30-03-09_02-05-09_02-05-09_02-05-09 1.1.1 11.817558849527998 -15.955851166043429
zni_30-03-12_06-12-12_07-12-12_06-12-12 1.1.1 14.432199785784 -26.42067202483481
zni_30-03-12_07-12-12_06-12-12_06-12-12 1.1.1 14.450694237492003 -25.24710899979181
zni_30-03-12_07-12-12_06-12-12_07-12-12 1.1.1 11.662418170963 -26.33486905382101
zni_30-03-12_07-12-12_07-12-12_06-12-12 1.1.1 14.090884602144 -24.87131030740808
znp_30-03-12_30-03-12_30-03-12_30-03-12_06-12-12_06-12-12_06-12-12_06-12-12_06-12-12_06-12-12 2.1.1 12.896169553487 -14.696984949020656
zra-d_30-03-12_30-03-12_30-03-12_30-03-12_30-03-12_06-12-12_06-12-12_06-12-12_06-12-12_06-12-12_06-12-12_06-12-12_06-12-12 1.1.1 12.879814245375004 -14.701505311596678
zsn_30-03-12_30-03-12_30-03-12_06-12-12_06-12-12_06-12-12_06-12-12_06-12-12 1.1.1 13.169006022394 -15.065875397478829
zxd_11-03-12_11-03-12_06-12-12_06-12-12_06-12-12 1.1.2 12.083726191023 -31.553286247851027
zxd_11-03-12_12-03-12_06-12-12_06-12-12_06-12-12 1.1.2 11.006058332958 -31.942324581222664
zxd_12-03-12_11-03-12_06-12-12_06-12-12_06-12-12 1.1.2 11.3569771945385 -31.38655122923175
zxd_12-03-12_11-03-12_07-12-12_07-12-12_07-12-12 1.1.2 10.744137341344004 -32.686679832367865
zxd_12-03-12_12-03-12_06-12-12_06-12-12_06-12-12 1.1.2 15.672112924962 -28.54046039204762
zxd_12-03-12_12-03-12_07-12-12_07-12-12_07-12-12 1.1.2 12.157106000791504 -29.277827107219416
zxd_23-10-08_23-10-08_02-02-08_02-02-08_02-02-08 1.1.2 12.948555968433 -17.167765094859078
zxd_33-11-02_33-11-02_01-01-02_02-01-02_02-01-02 1.1.1 11.015045545176 -15.557084632592325
zxd_34-11-10_34-11-10_02-06-10_02-06-10_02-06-10 1.1.1 12.762839987127 -16.20642345629611
zxd_35-11-03_35-11-03_01-01-03_01-01-03_01-01-03 1.1.2 17.558283915151993 -23.86454977635856
zxd_35-11-03_35-11-03_01-01-03_01-01-03_02-01-03 1.1.2 15.9395742607375 -22.95912127905288
zxd_35-11-03_35-11-03_01-01-03_02-01-03_01-01-03 1.1.2 16.44916257303 -23.80693181967641
zxd_35-11-03_35-11-03_01-01-03_02-01-03_02-01-03 1.1.2 15.176752795977498 -24.04338816584037
zxd_35-11-03_35-11-03_02-01-03_01-01-03_01-01-03 1.1.2 16.658293071978 -25.234311632920328
zxd_35-11-03_35-11-03_02-01-03_02-01-03_01-01-03 1.1.2 16.0693672237125 -25.08020193422083
zxd_35-11-03_35-11-03_02-01-03_02-01-03_02-01-03 1.1.2 14.673705642764997 -23.86618131987104
zxd_35-11-03_35-11-03_03-01-03_04-01-03_03-01-03 1.1.2 16.124747712612496 -18.510766108086884
zxd_35-11-03_35-11-03_03-01-03_04-01-03_04-01-03 1.1.2 16.346278354065 -19.89434474393946
zxd_35-11-03_35-11-03_04-01-03_03-01-03_04-01-03 1.1.2 16.527755584874495 -19.317549176900748
zxd_35-11-03_35-11-03_04-01-03_04-01-03_03-01-03 1.1.2 17.04670890647 -19.954939260344126
zxd_35-11-03_35-11-03_04-01-03_04-01-03_04-01-03 1.1.2 16.964012799450003 -20.95855466349984
zxd_36-11-11_36-11-11_02-07-11_02-07-11_01-07-11 1.1.2 6.188272099465001 -24.571678864758827
