data_mix
_audit_aif_version 63df4e8
_exptl_method GCMC
_exptl_adsorptive co2/n2
_exptl_temperature 298
_adsorp_pressure 1000000
_simltn_code RASPA 2.0.41
_simltn_date 2023-06-18T00:28:40.155575808
_simltn_forcefield_adsorptive uff
_simltn_forcefield_adsorbent mm3
_units_temperature K
_units_pressure Pa
_units_loading mol/kg
_units_composition_type co2/n2=15/85

loop_
_adsnt_material_id
_simltn_size
_adsorp_amount_co2_absolute
_adsorp_amount_n2_absolute
abr_30-03-12_30-03-12_30-03-12_06-12-12_06-12-12_06-12-12 1.1.1 1.525505270121 1.958815037741
abr_30-03-12_30-03-12_30-03-12_06-12-12_06-12-12_07-12-12 1.1.1 1.52661335607 1.862091352836
acs-f_11-03-12_07-12-12_07-12-12_07-12-12 2.2.1 2.56680881070625 1.21140449148125
acs-f_17-12-12_01-03-12_01-03-12_01-03-12 2.2.1 4.30714879536975 1.2716944874892495
acs-f_17-12-12_04-03-12_04-03-12_04-03-12 2.2.1 2.4417150918285 1.5819109200465002
acs-f_23-12-12_01-03-12_01-03-12_01-03-12 2.2.1 1.4817993585120002 2.04875500698
acs-f_33-11-02_04-01-02_04-01-02_03-01-02 2.2.1 1.4593066949895002 1.6128871915009997
acs-f_34-11-10_03-06-10_03-06-10_03-06-10 2.2.1 1.183325407455 1.6675367236089995
acs-f_34-11-10_04-06-10_04-06-10_03-06-10 2.2.1 1.5643391123745003 1.5937329325994998
acs-g_11-03-12_06-12-12_06-12-12_06-12-12 1.1.7 2.6051224822795995 0.8387341077595994
acs-g_33-11-02_01-01-02_02-01-02_02-01-02 2.2.2 1.028234381750625 1.5753754438756251
afi_30-03-12_06-12-12_06-12-12_06-12-12_06-12-12 1.1.1 1.495024901831 2.112809930882
afw_30-03-12_06-12-12_06-12-12 2.1.1 1.6999620139249998 1.870453831065
aht_30-03-12_30-03-12_06-12-12_06-12-12_06-12-12_06-12-12_06-12-12_06-12-12 1.1.1 1.5366566246070006 1.9879147625540003
ana-b_30-03-09_30-05-09_None_None_None_None 1.1.1 1.98063091556 1.6592600627240004
ana-b_30-03-12_30-03-12_06-12-12_06-12-12_06-12-12_06-12-12 1.1.1 1.5117519353369997 1.974533140032
ana-b_30-05-09_30-03-09_None_None_None_None 1.1.1 2.03457806112 1.6623427567559994
ana_30-03-12_06-12-12 1.1.1 1.537400050296 1.948141601451
apc_30-03-12_30-03-12_06-12-12_06-12-12_06-12-12_06-12-12_06-12-12_06-12-12_06-12-12 1.1.1 1.596873938624 2.055752168892
apd_30-03-12_30-03-12_06-12-12_06-12-12_06-12-12_06-12-12_06-12-12_06-12-12_06-12-12 1.1.1 1.498184452892 1.993862152416
asn_11-02-04_11-02-04_11-02-04_11-02-04_30-03-04_30-03-04_None_None_None_None_None_None_None_None 2.2.2 1.2652837711781253 1.8999146155368751
asn_11-02-05_11-02-05_11-02-05_11-02-05_30-04-05_30-04-05_None_None_None_None_None_None_None_None 1.1.1 2.027563309945 2.0795938038649995
asn_11-03-09_11-03-09_11-03-09_11-03-09_30-05-09_30-05-09_None_None_None_None_None_None_None_None 1.1.1 1.476368443928 2.085923450744
asn_11-04-05_11-04-05_11-04-05_11-04-05_30-02-05_30-02-05_None_None_None_None_None_None_None_None 1.1.1 1.874723734055 1.952769474935
asn_11-05-09_11-05-09_11-05-09_11-05-09_30-03-09_30-03-09_None_None_None_None_None_None_None_None 1.1.1 1.887654214656 2.0334886114480004
asn_12-02-05_12-02-05_12-02-05_12-02-05_30-04-05_30-04-05_None_None_None_None_None_None_None_None 1.1.1 1.7345525436000002 1.847298458934
asn_12-04-05_12-04-05_12-04-05_12-04-05_30-02-05_30-02-05_None_None_None_None_None_None_None_None 1.1.1 1.222859543238 1.7128706368050002
asn_17-08-01_17-08-01_17-08-01_17-08-01_30-01-01_30-01-01_None_None_None_None_None_None_None_None 2.2.2 1.6112800164149998 1.52967311590725
asn_17-10-08_17-10-08_17-10-08_17-10-08_30-02-08_30-02-08_None_None_None_None_None_None_None_None 2.2.2 2.3815976657425 1.645199888275
asn_17-12-12_17-12-12_17-12-12_17-12-12_28-03-12_28-03-12_None_None_None_None_None_None_None_None 1.1.1 1.88303458309 1.830093035706
asn_17-12-12_17-12-12_17-12-12_17-12-12_29-03-12_29-03-12_None_None_None_None_None_None_None_None 1.1.1 1.9708487295879995 1.947330248328
asn_17-12-12_17-12-12_17-12-12_17-12-12_30-03-12_30-03-12_None_None_None_None_None_None_None_None 2.2.2 7.895346226189 1.051101005355
asn_18-12-12_18-12-12_18-12-12_18-12-12_30-03-12_30-03-12_None_None_None_None_None_None_None_None 1.1.1 1.868628611381 1.8815643663999997
asn_23-12-12_23-12-12_23-12-12_23-12-12_30-03-12_30-03-12_None_None_None_None_None_None_None_None 1.1.1 1.839653330865 1.78696368641
asn_33-11-02_33-11-02_33-11-02_33-11-02_28-01-02_28-01-02_None_None_None_None_None_None_None_None 1.1.2 1.18812652156 1.859890109495
asn_33-11-02_33-11-02_33-11-02_33-11-02_29-01-02_29-01-02_None_None_None_None_None_None_None_None 1.1.2 1.31241522747 1.868651861784
asn_34-11-10_34-11-10_34-11-10_34-11-10_28-06-10_28-06-10_None_None_None_None_None_None_None_None 1.1.2 1.365554424195 1.9571625455625
asn_34-11-10_34-11-10_34-11-10_34-11-10_29-06-10_29-06-10_None_None_None_None_None_None_None_None 1.1.2 1.3181336505315002 2.012038910442
asn_35-11-03_35-11-03_35-11-03_35-11-03_30-01-03_30-01-03_None_None_None_None_None_None_None_None 2.2.2 1.3696644261299995 0.801568083316
atn_30-03-12_06-12-12_06-12-12_06-12-12 1.1.2 1.6046798866479997 2.045158382288
ato_30-03-12_06-12-12_06-12-12_06-12-12_06-12-12 1.1.2 1.499237634675 2.039954414652
atv_30-03-12_30-03-12_06-12-12_06-12-12_06-12-12_06-12-12_06-12-12_06-12-12 1.1.1 1.4913077837260005 1.941079074431
baa_30-02-06_30-02-06_None_None 1.2.2 0.93891628103475 1.5743970141820005
bac_30-03-12_30-03-12_06-12-12_06-12-12_06-12-12_06-12-12 1.1.1 1.582996697515 1.96660328608
baf_30-03-12_30-03-12_06-12-12_06-12-12_06-12-12_06-12-12_06-12-12 1.1.2 1.5383293284439998 1.974347282356
bao_30-03-12_30-03-12_06-12-12_06-12-12_06-12-12 1.1.2 1.4630576866200002 2.05184919465
bay_30-03-12_30-03-12_06-12-12_06-12-12_06-12-12_06-12-12 1.1.1 1.487590666288 1.931414568224
baz-a_28-04-05_16-04-05_28-04-05_16-04-05_03-02-05_03-02-05_03-02-05_03-02-05_03-02-05_03-02-05_03-02-05_03-02-05 1.1.1 9.297682259774998 49.33369437262
baz-a_28-04-05_16-04-05_28-04-05_16-04-05_04-02-05_04-02-05_04-02-05_04-02-05_04-02-05_04-02-05_04-02-05_04-02-05 1.1.1 8.400666294719999 43.79323534370801
bba_30-03-12_30-03-12_06-12-12_06-12-12_06-12-12 1.1.2 1.475695887685 1.983454220828
bba_30-03-12_30-03-12_06-12-12_06-12-12_07-12-12 1.1.2 1.3642377916364998 1.892961529065
bba_30-03-12_30-03-12_07-12-12_06-12-12_06-12-12 1.1.2 1.4440177794514997 1.8980384373805
bbb_30-03-12_30-03-12_06-12-12_06-12-12_06-12-12_06-12-12 1.1.1 1.52451403931 2.017156092325
bbc_30-03-12_30-03-12_06-12-12_06-12-12_06-12-12_06-12-12 1.1.1 1.5150973395979996 1.919519789422
bbg_30-03-12_30-03-12_06-12-12_06-12-12_06-12-12 2.2.1 1.5158407632190003 1.7128480227840002
bbg_30-03-12_30-03-12_06-12-12_06-12-12_07-12-12 2.2.1 1.482921587043 1.6964388964200003
bbg_30-03-12_30-03-12_06-12-12_07-12-12_06-12-12 2.2.1 1.50412707324825 1.6774270812015002
bbg_30-03-12_30-03-12_06-12-12_07-12-12_07-12-12 2.2.1 1.492072213359 1.6827178915365002
bbg_30-03-12_30-03-12_07-12-12_06-12-12_06-12-12 2.2.1 1.3450431461925003 1.6621388101912504
bbg_30-03-12_30-03-12_07-12-12_06-12-12_07-12-12 2.2.1 1.375793560635 1.5850788653700003
bbg_30-03-12_30-03-12_07-12-12_07-12-12_06-12-12 2.2.1 1.416278258928 1.6516384540890003
bbg_30-03-12_30-03-12_07-12-12_07-12-12_07-12-12 2.2.1 1.3643889946267505 1.6144256107792498
bbg_30-03-12_30-03-12_08-12-12_08-12-12_08-12-12 2.2.1 1.42761893883325 2.0844988186645
bbg_30-03-12_30-03-12_09-12-12_09-12-12_08-12-12 2.2.1 1.608472715003 1.7850532263795
bbg_30-03-12_30-03-12_09-12-12_09-12-12_09-12-12 2.2.1 1.6559023500374996 1.7615639223
bbh_30-03-12_30-03-12_06-12-12_06-12-12_06-12-12 1.1.2 1.5269921175340002 1.7946246210939998
bbh_30-03-12_30-03-12_06-12-12_06-12-12_07-12-12 1.1.2 1.4639097713239997 1.804659997816
bbh_30-03-12_30-03-12_06-12-12_07-12-12_06-12-12 1.1.2 1.548731716116 1.858770548804
bbh_30-03-12_30-03-12_06-12-12_07-12-12_07-12-12 1.1.2 1.5402731961435003 1.8337955987715
bbh_30-03-12_30-03-12_07-12-12_06-12-12_06-12-12 1.1.2 1.398008575282 1.719982633996
bbh_30-03-12_30-03-12_07-12-12_06-12-12_07-12-12 1.1.2 1.4217677095440002 1.7490762025229998
bbh_30-03-12_30-03-12_07-12-12_07-12-12_07-12-12 1.1.2 1.454267022052 1.71646758179
bbi_30-03-12_30-03-12_06-12-12_06-12-12_06-12-12_06-12-12 1.1.1 1.76191398177 1.921006636664
bbi_30-03-12_30-03-12_07-12-12_07-12-12_07-12-12_07-12-12 1.1.1 1.4353453321740002 1.6934912440810006
bbj_30-03-12_30-03-12_06-12-12_06-12-12_06-12-12_06-12-12 1.1.1 1.5225315758080002 1.809493093514
bbl_30-02-06_30-02-06_None_None_None_None_None 1.2.3 1.0079839683397678 1.6477996684200094
bbl_30-03-12_30-03-12_06-12-12_06-12-12_06-12-12_06-12-12_06-12-12 1.2.2 1.4890775128630005 1.7303184778775005
bbl_30-03-12_30-03-12_07-12-12_07-12-12_07-12-12_07-12-12_07-12-12 1.2.2 1.3282350519717503 1.6816651879072506
bbm_30-03-12_30-03-12_06-12-12_06-12-12_06-12-12_06-12-12 1.1.1 1.5924133961820002 1.7857035376420003
bbm_30-03-12_30-03-12_07-12-12_07-12-12_07-12-12_07-12-12 1.1.1 1.5569847671040002 1.684030399142
bcm_30-03-12_30-03-12_06-12-12_06-12-12_06-12-12 2.2.1 1.4779261585479997 1.634788542579
bcm_30-03-12_30-03-12_06-12-12_06-12-12_07-12-12 2.2.1 1.5238701121290004 1.795885314486
bcm_30-03-12_30-03-12_06-12-12_07-12-12_06-12-12 2.2.1 1.5180203228310003 1.6203916355460002
bcm_30-03-12_30-03-12_06-12-12_07-12-12_07-12-12 2.2.1 1.507899401736 1.6373945793660003
bcm_30-03-12_30-03-12_07-12-12_06-12-12_06-12-12 2.2.1 1.5116054839852495 1.6419283173209995
bcm_30-03-12_30-03-12_07-12-12_06-12-12_07-12-12 2.2.1 1.432746610776 1.645462822146
bcm_30-03-12_30-03-12_07-12-12_07-12-12_06-12-12 2.2.1 1.55076979902 1.61938793172
bcm_30-03-12_30-03-12_07-12-12_07-12-12_07-12-12 2.2.1 1.48062223240575 1.6096951883114996
bcm_30-03-12_30-03-12_08-12-12_08-12-12_08-12-12 2.2.1 1.438438136854 2.0577084235655003
bcm_30-03-12_30-03-12_09-12-12_08-12-12_08-12-12 2.2.1 1.5221245482585002 1.8325492633275
bcm_30-03-12_30-03-12_09-12-12_09-12-12_08-12-12 2.2.1 1.6084727150029996 1.83819475468475
bcm_30-03-12_30-03-12_09-12-12_09-12-12_09-12-12 2.2.1 1.5861334492687498 1.7349468850125
bcn_30-03-12_30-03-12_06-12-12_06-12-12_06-12-12_06-12-12 2.2.1 1.6377622370629998 1.79908516282
bcn_30-03-12_30-03-12_07-12-12_07-12-12_07-12-12_07-12-12 2.2.1 1.4894073027030004 1.7333619471112498
bco_30-02-06_30-02-06_None_None_None_None_None 2.2.2 1.0386165324835 1.6038736102625
bco_30-03-12_30-03-12_06-12-12_06-12-12_06-12-12_06-12-12_06-12-12 2.1.2 1.4400115538770002 1.757453440044
bco_30-03-12_30-03-12_07-12-12_07-12-12_07-12-12_07-12-12_07-12-12 2.1.2 1.3373580090967505 1.6610540608184998
bcp_30-03-12_30-03-12_06-12-12_06-12-12_06-12-12_06-12-12 1.2.1 2.380442434442 1.5597027568580004
bcp_30-03-12_30-03-12_07-12-12_07-12-12_07-12-12_07-12-12 1.2.1 2.0104295495375 1.5076532184935
bcq_30-03-12_30-03-12_06-12-12_06-12-12_06-12-12_06-12-12 1.1.2 1.5002288671780002 1.9641252066820003
bcu-f_33-11-02_01-01-02_01-01-02_02-01-02 2.2.2 1.6603878872875004 1.7142657799566252
bcu-f_33-11-02_01-01-02_02-01-02_01-01-02 2.2.2 1.20428950028975 1.44284318858575
bcu-f_33-11-02_01-01-02_02-01-02_02-01-02 2.2.2 1.2257913865515 1.3509499044992497
bcu-f_33-11-02_02-01-02_01-01-02_01-01-02 2.2.2 1.5404333337977498 1.8013514303715004
bcu-f_33-11-02_02-01-02_01-01-02_02-01-02 2.2.2 1.6666307565595 1.5444033514442503
bcu-f_35-11-03_01-01-03_01-01-03_02-01-03 2.2.1 1.5488528967145 1.2992175287
bcu-f_35-11-03_01-01-03_02-01-03_02-01-03 1.3.1 2.17487795291958 1.0430023222269469
bcu-g_11-03-12_06-12-12_06-12-12_06-12-12 2.1.1 2.562840275125 1.46673320361
bcu-g_11-03-12_08-12-12_08-12-12_08-12-12 2.2.1 3.1185783994840004 1.143514512042
bcu-g_11-05-09_03-03-09_03-03-09_03-03-09 2.2.1 1.6149484575180002 1.793061021906
bcu-g_12-03-04_02-02-04_02-02-04_02-02-04 2.1.1 1.10924024506 1.33284782916
bcu-h_17-12-12_02-03-12_02-03-12_02-03-12 1.1.1 1.5716983427120004 2.1753395831699995
bcx_30-03-12_30-03-12_06-12-12_06-12-12_06-12-12_06-12-12 1.1.1 2.065230820064 1.78142885262
bcx_30-03-12_30-03-12_07-12-12_07-12-12_07-12-12_07-12-12 1.1.1 1.736909765033 1.682172019301
bcx_30-03-12_30-03-12_08-12-12_08-12-12_08-12-12_08-12-12 1.1.1 1.618629302581 2.0962196148250003
bcz_30-03-12_30-03-12_08-12-12_08-12-12_08-12-12_08-12-12 1.1.1 1.885288189356 1.795643405712
bew_24-03-12_24-03-12_07-12-12_06-12-12_06-12-12 1.2.4 2.443577617484375 0.94646293461375
bew_31-02-08_31-02-08_06-10-08_06-10-08_07-10-08 3.2.3 2.083385280158316 1.4813770372346995
bew_31-02-08_31-02-08_06-10-08_07-10-08_06-10-08 1.2.3 2.694596632828373 1.508277505738711
bew_31-02-08_31-02-08_06-10-08_07-10-08_07-10-08 2.2.3 2.321603233488 1.242878306106583
bex_25-12-12_20-12-12_02-03-12_02-03-12 1.2.5 2.2955321881053 0.7265546891394
bey_16-03-12_31-03-12_06-12-12_06-12-12_06-12-12 1.2.4 4.49433666945575 0.50455210865325
bik_30-03-12_30-03-12_06-12-12_06-12-12_06-12-12_06-12-12 1.1.2 1.4838735475159996 1.9447961925360004
bil_11-02-05_11-02-05_11-02-05_11-02-05_02-04-05_02-04-05_02-04-05_02-04-05_02-04-05_02-04-05 1.1.4 1.4164367614110005 1.0001396629460002
bil_12-03-12_12-03-12_12-03-12_12-03-12_06-12-12_06-12-12_06-12-12_06-12-12_06-12-12_06-12-12 1.1.3 2.4207010763634287 0.8234166159868392
bil_19-12-12_19-12-12_19-12-12_19-12-12_02-03-12_02-03-12_02-03-12_02-03-12_02-03-12_02-03-12 1.1.4 1.8119106279177493 0.90527422540725
bil_23-12-12_23-12-12_23-12-12_23-12-12_04-03-12_04-03-12_04-03-12_04-03-12_04-03-12_04-03-12 1.1.3 2.0547478045615613 2.046601678166262
bil_35-11-03_35-11-03_35-11-03_35-11-03_01-01-03_01-01-03_01-01-03_01-01-03_01-01-03_01-01-03 1.1.3 2.7594425759502967 1.2246743643051088
bil_35-11-03_35-11-03_35-11-03_35-11-03_02-01-03_02-01-03_02-01-03_02-01-03_02-01-03_02-01-03 1.1.3 2.345495656016765 1.1134477982313218
bmn_11-03-12_06-12-12_06-12-12 1.1.1 2.715822127116001 1.827370831176
bmn_11-03-12_07-12-12_06-12-12 1.1.1 2.069871313904 2.005065096296
bmn_12-03-12_06-12-12_06-12-12 1.1.1 2.728153703987 1.4273805216460005
bmn_12-03-12_06-12-12_07-12-12 1.1.1 2.692843095544 1.4973371297639997
bmn_12-03-12_07-12-12_06-12-12 1.1.1 2.364997374593 1.6866374413360004
bmn_12-03-12_07-12-12_07-12-12 1.1.1 2.179425165408 1.836748252608
bmn_12-03-12_08-12-12_08-12-12 1.1.1 2.39229954536 1.603898065356
bmn_14-03-12_06-12-12_06-12-12 2.1.1 1.6990924409730004 1.3422099919605
bmn_17-12-12_01-03-12_02-03-12 1.1.1 2.571696549672 1.7157495721200002
bnl_30-03-12_30-03-12_06-12-12_06-12-12_06-12-12_06-12-12_06-12-12 1.1.1 1.584049881156 1.7507626282400002
bnl_30-03-12_30-03-12_07-12-12_07-12-12_07-12-12_07-12-12_07-12-12 1.1.1 1.435345332528 1.6882539910490002
bod_11-03-12_12-03-12_07-12-12_07-12-12 2.1.3 2.392359135660864 1.4180046212884547
bod_15-02-05_15-02-05_05-04-05_05-04-05 1.1.1 10.49266137147 56.971362964639
bod_15-02-06_15-02-06_05-02-06_05-02-06 1.1.1 11.310106430755004 60.993623984645
bod_15-03-09_15-03-09_05-05-09_05-05-09 1.1.1 10.889354465128 60.132591168277
bod_15-04-05_15-04-05_05-02-05_05-02-05 1.1.1 10.720839313972998 57.93164851416899
bod_15-05-09_15-05-09_05-03-09_05-03-09 1.1.1 10.677361840888002 58.789087912156
boe_12-03-12_12-03-12_06-12-12_06-12-12 1.1.1 1.86816162786 2.226038373438
boe_12-03-12_12-03-12_06-12-12_07-12-12 1.1.1 1.803532795488 2.023220665008
boe_12-03-12_12-03-12_07-12-12_06-12-12 1.1.1 1.804715280744 2.202326970504
boe_12-03-12_12-03-12_07-12-12_07-12-12 1.1.1 1.840175021915 2.045781169615
boe_12-03-12_12-03-12_09-12-12_08-12-12 2.1.2 2.3548578969880003 1.8391681081655
boe_12-03-12_12-03-12_09-12-12_09-12-12 2.1.2 2.40575360883975 1.08316810721925
boe_17-12-12_17-12-12_01-03-12_01-03-12 1.1.1 1.8496609696120003 2.4880841965040004
boe_17-12-12_17-12-12_01-03-12_02-03-12 1.1.1 1.65339577095 2.0097667892500004
boe_17-12-12_17-12-12_02-03-12_01-03-12 1.1.1 1.715814272385 2.342792430495
boe_17-12-12_17-12-12_02-03-12_02-03-12 1.1.1 1.505260620666 1.9832155739999997
boe_33-11-02_33-11-02_01-01-02_02-01-02 2.2.2 1.025168734656 1.546652136139
boe_33-11-02_33-11-02_02-01-02_01-01-02 2.2.2 1.0807781533841252 1.8180666207810003
boe_33-11-02_33-11-02_02-01-02_02-01-02 2.2.2 1.021427097099 1.499497951202375
boe_34-11-10_34-11-10_01-06-10_02-06-10 2.2.2 0.9859078864017502 1.6190967929620006
boe_34-11-10_34-11-10_02-06-10_01-06-10 2.2.2 1.1302258988122498 1.9920743079427496
boe_34-11-10_34-11-10_02-06-10_02-06-10 2.2.2 1.044099848250875 1.5080516755151248
bor_11-03-04_30-02-04_None 2.2.2 2.0085423637275 1.7343720471675
bor_11-03-09_30-05-09_None 2.2.2 1.5435505815405 2.195708895185
bor_11-04-05_30-02-05_None 2.2.2 2.444620238148375 1.9178114871273757
bor_11-05-09_30-03-09_None 2.2.2 2.022837784407375 2.217829843009625
bor_12-02-04_30-03-04_None 2.2.2 1.5619129948034998 1.661850699616125
bor_12-03-04_30-02-04_None 2.2.2 1.912210104456 1.5217318557551252
bor_12-03-09_30-05-09_None 2.2.2 1.2596816028480002 1.809837172896
bor_17-08-01_30-01-01_None 2.2.2 1.6550818032689998 1.5236764427069998
bor_17-10-08_30-02-08_None 2.2.2 2.1855402988650003 1.6262774614450002
bor_17-12-12_28-03-12_None 2.2.2 1.8060286967365 1.8577670271560005
bor_17-12-12_29-03-12_None 2.2.2 1.8879460831465 1.9926033247535
bor_17-12-12_30-03-12_None 2.2.2 7.628575559344999 1.03348020845875
bor_18-12-12_30-03-12_None 2.2.2 1.7716104487385005 1.912139787354
bor_33-11-02_28-01-02_None 2.2.2 1.8195646230187497 1.7664530069955005
bor_33-11-02_29-01-02_None 2.2.2 2.017423840638 1.8241150273500009
bor_34-11-10_28-06-10_None 2.2.2 2.2316607864115 1.9432889885226248
bor_34-11-10_29-06-10_None 2.2.2 2.261157580389625 2.03303741926125
bor_36-11-11_29-07-11_None 2.2.2 1.31471686603125 1.7688917833874995
bpa_17-12-12_17-12-12_02-03-12_02-03-12_02-03-12_02-03-12 2.1.1 1.6014465763279997 2.2937127627669995
bpc_17-12-12_17-12-12_02-03-12_02-03-12_02-03-12_02-03-12 2.1.1 1.669619611698 2.304868350373
bpc_23-10-08_23-10-08_01-02-08_01-02-08_01-02-08_01-02-08 5.1.3 1.4701460869829948 1.884448419981621
bpc_35-11-03_35-11-03_02-01-03_02-01-03_02-01-03_02-01-03 5.1.3 2.0811771828187537 1.0741296576741564
bpe_11-03-12_11-03-12_07-12-12_07-12-12_07-12-12_07-12-12_07-12-12 1.2.1 1.5234041185265 2.0587698148360003
bpe_11-03-12_12-03-12_06-12-12_06-12-12_06-12-12_06-12-12_06-12-12 1.2.1 1.5584553765679996 2.0209359320189995
bpe_11-03-12_12-03-12_09-12-12_09-12-12_09-12-12_09-12-12_09-12-12 1.2.1 1.8976303040625 1.9016635246875004
bpe_12-03-12_12-03-12_09-12-12_09-12-12_09-12-12_09-12-12_09-12-12 1.2.1 2.0686914741839995 1.860570471108
bpe_17-12-12_17-12-12_01-03-12_01-03-12_01-03-12_01-03-12_01-03-12 1.2.1 1.7577141456165 2.458749531643
bpe_35-11-03_35-11-03_01-01-03_01-01-03_01-01-03_01-01-03_01-01-03 1.4.1 2.412636218892 1.4660765309459998
bpf_12-03-12_12-03-12_06-12-12_06-12-12_06-12-12_06-12-12_06-12-12 2.1.1 1.6247941871700005 2.176239487058
bpf_17-12-12_17-12-12_02-03-12_02-03-12_02-03-12_02-03-12_02-03-12 2.1.1 1.6163206924839997 1.9373537134605
bpf_23-10-08_23-10-08_01-02-08_01-02-08_01-02-08_01-02-08_01-02-08 5.1.3 1.323174020914618 1.951835516476382
bpf_35-11-03_35-11-03_01-01-03_01-01-03_01-01-03_01-01-03_01-01-03 5.1.3 3.0234496685343726 1.3920279666139226
bpg_17-12-12_17-12-12_02-03-12_02-03-12_02-03-12_02-03-12_02-03-12 1.1.1 1.6187997126039997 2.167902524766
bpg_23-10-08_18-10-08_02-02-08_02-02-08_02-02-08_02-02-08_02-02-08 3.4.1 1.8605143976214416 1.287718817279135
bpi_17-12-12_17-12-12_02-03-12_02-03-12_02-03-12_02-03-12 1.1.1 1.569219323244 2.258386735348
bpi_34-11-10_34-11-10_01-06-10_02-06-10_02-06-10_02-06-10 2.1.1 0.8871659393579999 1.624809529386
bpi_35-11-03_35-11-03_01-01-03_01-01-03_01-01-03_01-01-03 1.1.3 2.793615188603761 1.4511837909758034
bpi_35-11-03_35-11-03_02-01-03_02-01-03_02-01-03_02-01-03 1.1.3 2.039989923886 1.1229629945827972
bpi_35-11-03_35-11-03_04-01-03_04-01-03_04-01-03_04-01-03 1.1.3 1.4421710321473271 1.3283716854314722
bpj_35-11-03_35-11-03_02-01-03_01-01-03_02-01-03 1.3.2 2.1183986855723824 1.098471707062787
bpk_12-03-12_12-03-12_06-12-12_06-12-12_06-12-12_06-12-12_06-12-12 1.1.1 1.7331137996480002 2.4449283959320005
bpk_17-12-12_17-12-12_02-03-12_02-03-12_02-03-12_02-03-12_02-03-12 1.1.1 1.6720986311659995 2.073080030115
bpk_34-11-10_34-11-10_02-06-10_02-06-10_02-06-10_02-06-10_02-06-10 1.1.2 0.96830161476 1.5170058631240002
bpk_35-11-03_35-11-03_04-01-03_04-01-03_04-01-03_04-01-03_04-01-03 1.3.3 2.438699368365147 1.4197819631548405
bpl_17-12-12_17-12-12_02-03-12_02-03-12_02-03-12_02-03-12_02-03-12 1.1.1 1.695029561245 2.2453718831409994
bpl_18-10-08_23-10-08_02-02-08_02-02-08_02-02-08_02-02-08_02-02-08 4.3.1 1.8979657296652304 1.2978070186699455
bpm_12-03-12_12-03-12_06-12-12_06-12-12_06-12-12_06-12-12_06-12-12 1.3.3 4.412812815388978 0.6947772998544604
bpm_17-12-12_17-12-12_02-03-12_02-03-12_02-03-12_02-03-12_02-03-12 1.1.1 1.5729378524459998 2.02659841509
bpm_23-10-08_23-10-08_02-02-08_02-02-08_02-02-08_02-02-08_02-02-08 1.3.3 2.0702413648738944 1.426929543838096
bpo_17-12-12_17-12-12_02-03-12_02-03-12_02-03-12_02-03-12_02-03-12 1.1.1 1.6473084364859998 2.099729489396
bpp_12-03-12_12-03-12_06-12-12_06-12-12_06-12-12 2.1.1 1.6705135041250003 2.2638095633795
bpp_17-12-12_17-12-12_02-03-12_02-03-12_02-03-12 2.1.1 1.5912206210225 2.089813411524
bpp_34-11-10_34-11-10_02-06-10_02-06-10_02-06-10 2.2.1 0.948779404785 1.4933189150209998
bpr_11-03-12_23-12-12_None_None 1.1.1 1.9503683560680003 1.959350829474
bpr_11-04-05_11-02-05_None_None 1.1.1 2.71570995696 2.1976609636799997
bpr_11-04-05_12-02-05_None_None 1.1.1 2.637302079336 2.0500444485920006
bpr_11-05-09_12-03-09_None_None 1.1.1 1.649252941839 2.084051317905
bpr_12-03-09_11-05-09_None_None 1.1.1 3.10423426884 1.507917772314
bpr_12-03-12_12-03-12_06-12-12_06-12-12 1.1.1 1.8388543763480003 2.379983523436
bpr_12-03-12_12-03-12_06-12-12_07-12-12 1.1.1 1.831669691677 2.309644795486
bpr_12-03-12_19-12-12_None_None 1.1.1 1.835741156514 2.030637170056
bpr_12-03-12_21-12-12_None_None 1.1.1 1.9451537946499995 2.196636131305
bpr_17-10-08_17-10-08_02-02-08_02-02-08 1.1.1 1.925416371816 1.309392207536
bpr_17-12-12_16-03-12_None_None 1.1.1 1.7649796306890002 1.889715980911
bpr_17-12-12_17-12-12_01-03-12_02-03-12 1.1.1 1.8829869562820003 2.4283157868510004
bpr_17-12-12_17-12-12_02-03-12_01-03-12 1.1.1 1.6121616992010002 2.298670737939
bpr_19-12-12_12-03-12_None_None 1.1.1 1.6478175727579998 2.019016453746
bpr_21-12-12_12-03-12_None_None 1.1.1 1.8280550493150003 2.1591450569149995
bpr_23-12-12_11-03-12_None_None 1.1.1 2.114396131308 1.965599506626
bpr_34-11-10_34-11-10_02-06-10_02-06-10 1.1.1 1.0915084520949998 1.5024292811190003
bps_23-10-08_23-10-08_02-02-08_02-02-08_02-02-08_02-02-08 1.3.1 1.818738438423652 1.509483006699966
bpt_17-12-12_17-12-12_02-03-12_02-03-12_02-03-12_02-03-12 2.1.1 1.5824407600875 2.2534286959575
bpu_11-03-12_12-03-12_06-12-12_06-12-12_06-12-12_06-12-12 1.1.1 2.067341157375 2.100418615893
bpu_11-03-12_12-03-12_07-12-12_07-12-12_07-12-12_07-12-12 1.1.1 2.00641039506 1.787314513804
bpu_12-03-12_11-03-12_06-12-12_06-12-12_06-12-12_06-12-12 1.1.1 1.936347573204 2.179906949583
bpu_12-03-12_12-03-12_06-12-12_06-12-12_06-12-12_06-12-12 1.1.1 2.312694062172 1.9960194088900003
bpu_12-03-12_12-03-12_07-12-12_07-12-12_07-12-12_07-12-12 1.1.1 2.029218451964 1.9772457868559996
bpu_17-12-12_17-12-12_01-03-12_01-03-12_01-03-12_01-03-12 1.1.1 2.435092546032 2.047468430328
bpu_17-12-12_17-12-12_02-03-12_02-03-12_02-03-12_02-03-12 1.1.1 2.056759814469 1.8680788886740003
bpv_15-03-09_15-03-09_05-05-09_05-05-09_05-05-09_05-05-09 1.1.1 8.62287358975 46.76240768675
bto-z_12-03-12_06-12-12_06-12-12 2.2.1 1.58962548196125 2.3614613354445
bto-z_12-03-12_06-12-12_07-12-12 2.2.1 1.52733841932 2.2773706788075
bto-z_17-12-12_01-03-12_02-03-12 2.2.1 1.6212869552279998 2.376987890364
bto-z_17-12-12_02-03-12_01-03-12 2.2.1 1.6061553030649998 2.1418370163309994
bto-z_17-12-12_02-03-12_02-03-12 2.2.1 1.6154943529875 2.1509625579675
bto-z_34-11-10_02-06-10_02-06-10 3.3.1 0.9520281499519426 1.4740089393931513
bto_12-03-12_06-12-12_06-12-12 2.2.1 1.6290144319567497 2.228289171174
bto_12-03-12_06-12-12_07-12-12 2.2.1 1.6437070607919997 2.223732008129
bto_12-03-12_07-12-12_06-12-12 2.2.1 1.824250120121 2.17798527397425
bto_17-12-12_01-03-12_02-03-12 2.2.1 1.6473123700859995 2.4242191988099995
bto_17-12-12_02-03-12_01-03-12 2.2.1 1.6070451397980003 2.333151913926
bto_17-12-12_02-03-12_02-03-12 2.2.1 1.6361528485500003 2.1245196836475
bto_34-11-10_02-06-10_02-06-10 3.3.1 1.0198981662291224 1.4807956855835973
byl_30-03-12_30-03-12_06-12-12_06-12-12_06-12-12_06-12-12_06-12-12_06-12-12 1.1.1 1.3902021712700003 1.923236907527
cag-b_30-02-05_30-04-05_None_None_None_None 2.1.2 2.377870723396 1.58429079809275
cag-b_30-03-09_30-05-09_None_None_None_None 2.1.2 2.195263487538 1.718987259594
cag-b_30-03-12_30-03-12_06-12-12_06-12-12_06-12-12_06-12-12 1.1.1 1.4173371340720002 1.949256735136
cag-b_30-04-05_30-02-05_None_None_None_None 2.1.2 2.29237295848625 1.53379547385075
cag-b_30-05-09_30-03-09_None_None_None_None 2.1.2 2.002209773784001 1.7340153929999993
cag_30-03-12_06-12-12_06-12-12_06-12-12_06-12-12 1.1.1 1.340392789264 1.85112481712
cal-d_30-03-12_30-03-12_30-03-12_30-03-12_06-12-12_06-12-12_06-12-12_06-12-12_06-12-12_06-12-12_06-12-12 1.1.1 1.522619035021 1.987564913025
cas_30-03-12_30-03-12_30-03-12_06-12-12_06-12-12_06-12-12_06-12-12_06-12-12_06-12-12 2.1.1 1.5314526592600004 1.9570626822825
cbd_30-03-12_30-03-12_30-03-12_30-03-12_30-03-12_30-03-12_06-12-12_06-12-12_06-12-12_06-12-12_06-12-12_06-12-12_06-12-12_06-12-12_06-12-12 1.1.1 1.4646797003160004 2.077395931539
cbn_30-03-12_30-03-12_30-03-12_30-03-12_06-12-12_06-12-12_06-12-12_06-12-12_06-12-12_06-12-12_06-12-12_06-12-12 1.2.1 1.46919093166 1.9470264642720003
cbo_30-03-12_06-12-12_06-12-12 1.1.1 1.579031771004 1.777525877811
cbo_30-03-12_06-12-12_07-12-12 1.1.1 1.6064220855039997 1.802534433536
cbo_30-03-12_07-12-12_06-12-12 1.1.1 1.556155021568 1.7444795146239995
cbo_30-03-12_07-12-12_07-12-12 1.1.1 1.4704856122879997 1.7022763131220002
cda_28-03-12_30-03-12_06-12-12_08-12-12 1.1.2 1.569389064937 2.1364742621015
cda_30-03-09_30-03-09_02-05-09_02-05-09 1.1.2 1.765862519376 1.500924003408
cda_30-03-12_30-03-12_06-12-12_06-12-12 1.1.2 1.692032161396 1.630328000853
cda_30-03-12_30-03-12_06-12-12_07-12-12 1.1.2 1.791349957215 1.6309198204845
cda_30-03-12_30-03-12_07-12-12_06-12-12 1.1.2 1.8029153460890004 1.5213622731009997
cda_30-03-12_30-03-12_07-12-12_07-12-12 1.1.2 1.8854112414150004 1.2441011094785004
cda_30-03-12_30-03-12_08-12-12_08-12-12 1.1.2 1.5419933171614997 1.992793234474
cda_30-03-12_30-03-12_09-12-12_08-12-12 1.1.2 1.9603712048265 1.657337554402
cda_30-03-12_30-03-12_09-12-12_09-12-12 1.1.2 1.7369633261545 1.6220261197570005
cdl-a_15-02-05_15-02-05_15-02-05_05-04-05_05-04-05_05-04-05_05-04-05_05-04-05 1.1.1 9.679392013392 51.01241669496
cdl-a_15-02-06_15-02-06_15-02-06_05-02-06_05-02-06_05-02-06_05-02-06_05-02-06 1.1.1 9.925664771152 54.133508583908
cdl-a_15-03-09_15-03-09_15-03-09_05-05-09_05-05-09_05-05-09_05-05-09_05-05-09 1.1.1 10.1027734875 54.70569033862501
cdl-a_15-04-05_15-04-05_15-04-05_05-02-05_05-02-05_05-02-05_05-02-05_05-02-05 1.1.1 9.939285808847998 53.332189068384
cdl-a_15-05-09_15-05-09_15-05-09_05-03-09_05-03-09_05-03-09_05-03-09_05-03-09 1.1.1 9.991808598375 54.44566813575001
cdp_30-03-12_30-03-12_06-12-12_06-12-12_06-12-12 1.1.1 1.3857416295440004 1.8793749138880005
cdp_30-03-12_30-03-12_06-12-12_06-12-12_07-12-12 1.1.1 1.4083367730119998 1.955292072188
cdp_30-03-12_30-03-12_06-12-12_07-12-12_06-12-12 1.1.1 1.4156490096320002 1.854383206832
cdp_30-03-12_30-03-12_06-12-12_07-12-12_07-12-12 1.1.1 1.3280449883609995 1.8489033694950008
cds-a_11-03-12_11-03-12_08-12-12_08-12-12_08-12-12 5.4.1 2.9763029837704 1.7394939966432004
cds-a_15-02-05_15-02-05_05-04-05_05-04-05_05-04-05 1.1.1 9.280190747019 49.514173058914
cds-a_15-02-06_15-02-06_05-02-06_05-02-06_05-02-06 1.1.1 9.507112642248 52.045347413332
cds-a_15-03-09_15-03-09_05-05-09_05-05-09_05-05-09 1.1.1 10.131480831176 54.85309150967999
cds-a_15-04-05_15-04-05_05-02-05_05-02-05_05-02-05 1.1.1 9.656816501793 50.310373119445
cds-a_15-05-09_15-05-09_05-03-09_05-03-09_05-03-09 1.1.1 9.789201073366 53.963164139374
cds-a_35-11-03_35-11-03_02-01-03_01-01-03_02-01-03 4.4.1 2.490553601891875 1.4040829435165003
cee-a_15-02-05_15-02-05_15-02-05_15-02-05_03-04-05_03-04-05_03-04-05_03-04-05_03-04-05_03-04-05_03-04-05 1.1.1 10.25269411608 55.818479091492
cee-a_15-02-05_15-02-05_15-02-05_15-02-05_04-04-05_04-04-05_04-04-05_04-04-05_04-04-05_04-04-05_04-04-05 1.1.1 9.145314681584 48.68669806195298
cee-a_15-02-06_15-02-06_15-02-06_15-02-06_03-02-06_03-02-06_03-02-06_03-02-06_03-02-06_03-02-06_03-02-06 1.1.1 11.408082210735998 62.453211298896
cee-a_15-02-06_15-02-06_15-02-06_15-02-06_04-02-06_04-02-06_04-02-06_04-02-06_04-02-06_04-02-06_04-02-06 1.1.1 10.115032862151 56.094624775305
cee-a_15-03-09_15-03-09_15-03-09_15-03-09_01-05-09_01-05-09_01-05-09_01-05-09_01-05-09_01-05-09_01-05-09 1.1.1 8.895011114928002 47.262919178382
cee-a_15-03-09_15-03-09_15-03-09_15-03-09_03-05-09_03-05-09_03-05-09_03-05-09_03-05-09_03-05-09_03-05-09 1.1.1 11.189705013346 61.201856239346
cee-a_15-03-09_15-03-09_15-03-09_15-03-09_04-05-09_04-05-09_04-05-09_04-05-09_04-05-09_04-05-09_04-05-09 1.1.1 10.157542363136 55.09132862463999
cee-a_15-04-05_15-04-05_15-04-05_15-04-05_01-02-05_01-02-05_01-02-05_01-02-05_01-02-05_01-02-05_01-02-05 1.1.1 8.573889570222002 45.37714580532299
cee-a_15-04-05_15-04-05_15-04-05_15-04-05_03-02-05_03-02-05_03-02-05_03-02-05_03-02-05_03-02-05_03-02-05 1.1.1 10.857821501826002 58.125676569012
cee-a_15-04-05_15-04-05_15-04-05_15-04-05_04-02-05_04-02-05_04-02-05_04-02-05_04-02-05_04-02-05_04-02-05 1.1.1 10.102550204173 53.44371651878899
cee-a_15-05-09_15-05-09_15-05-09_15-05-09_01-03-09_01-03-09_01-03-09_01-03-09_01-03-09_01-03-09_01-03-09 1.1.1 8.75866772118 47.602183003176016
cee-a_15-05-09_15-05-09_15-05-09_15-05-09_03-03-09_03-03-09_03-03-09_03-03-09_03-03-09_03-03-09_03-03-09 1.1.1 11.192787954175005 60.623976108399
cee-a_15-05-09_15-05-09_15-05-09_15-05-09_04-03-09_04-03-09_04-03-09_04-03-09_04-03-09_04-03-09_04-03-09 1.1.1 10.2085062464 55.06301535616
cee-a_16-02-06_16-02-06_16-02-06_16-02-06_05-02-06_05-02-06_05-02-06_05-02-06_05-02-06_05-02-06_05-02-06 1.1.1 9.041202306433 48.850272115920006
cee-a_16-03-09_16-03-09_16-03-09_16-03-09_05-05-09_05-05-09_05-05-09_05-05-09_05-05-09_05-05-09_05-05-09 1.1.1 9.29986278776 49.831081196176
cee-a_16-04-05_16-04-05_16-04-05_16-04-05_05-02-05_05-02-05_05-02-05_05-02-05_05-02-05_05-02-05_05-02-05 1.1.1 8.637465942375 45.606541004225
cee-a_16-05-09_16-05-09_16-05-09_16-05-09_05-03-09_05-03-09_05-03-09_05-03-09_05-03-09_05-03-09_05-03-09 1.1.1 9.140253840528 49.064179669232
cef-a_16-03-09_16-03-09_16-03-09_28-03-09_05-05-09_05-05-09_05-05-09_05-05-09_05-05-09_05-05-09_05-05-09_05-05-09 1.1.1 8.824961448 46.91614795199999
cef-a_16-05-09_16-05-09_16-05-09_28-05-09_05-03-09_05-03-09_05-03-09_05-03-09_05-03-09_05-03-09_05-03-09_05-03-09 1.1.1 8.8911519552 47.2534294608
cem-a_18-12-12_18-12-12_18-12-12_03-03-12_03-03-12_03-03-12_03-03-12_03-03-12_03-03-12 2.1.6 3.37031273101721 0.7507910199043506
cem-a_23-12-12_23-12-12_23-12-12_01-03-12_01-03-12_01-03-12_01-03-12_01-03-12_01-03-12 1.1.3 2.3130917000414084 1.7234287328558568
cem-a_23-12-12_23-12-12_23-12-12_04-03-12_04-03-12_04-03-12_04-03-12_04-03-12_04-03-12 1.1.3 2.193854486760935 1.8387562928575076
cem-a_35-11-03_35-11-03_35-11-03_01-01-03_01-01-03_01-01-03_01-01-03_01-01-03_01-01-03 1.2.3 2.385759850976512 1.5045207610654612
cem-a_35-11-03_35-11-03_35-11-03_02-01-03_02-01-03_02-01-03_02-01-03_02-01-03_02-01-03 1.1.3 2.318921108205556 0.9230419105620884
cez-a_17-12-12_17-12-12_17-12-12_17-12-12_01-03-12_01-03-12_01-03-12_01-03-12_01-03-12_01-03-12_01-03-12 1.1.1 2.81605765794 2.092679561364
cfc_30-03-12_30-03-12_06-12-12_06-12-12_06-12-12 2.2.1 1.4435428160767505 1.88179104065625
cfc_30-03-12_30-03-12_06-12-12_06-12-12_07-12-12 2.2.1 1.4493817817499997 1.9350788681875
cfc_30-03-12_30-03-12_06-12-12_07-12-12_06-12-12 2.2.1 1.34999219479625 1.8255753076
cfc_30-03-12_30-03-12_07-12-12_06-12-12_06-12-12 2.2.1 1.4295574108749998 1.8100751962812496
cfc_30-03-12_30-03-12_07-12-12_06-12-12_07-12-12 2.2.1 1.466501230226 1.8423737636407496
cfc_30-03-12_30-03-12_07-12-12_07-12-12_06-12-12 2.2.1 1.3862388348640002 1.819438470759
cfc_30-03-12_30-03-12_07-12-12_07-12-12_07-12-12 2.2.1 1.34563624858125 1.84537159362875
cfd_30-03-12_30-03-12_30-03-12_06-12-12_06-12-12_06-12-12_06-12-12 2.2.1 1.435551012151 1.893499962687
cfd_30-03-12_30-03-12_30-03-12_07-12-12_07-12-12_07-12-12_07-12-12 2.2.1 1.3603343473005003 1.8178337775650004
cfe_30-03-12_30-03-12_30-03-12_06-12-12_06-12-12_06-12-12_06-12-12 2.2.1 1.42068254020875 1.9286886813962496
cfe_30-03-12_30-03-12_30-03-12_07-12-12_07-12-12_07-12-12_07-12-12 2.2.1 1.3788055202427498 1.810174997659
che_30-03-12_30-03-12_30-03-12_06-12-12_06-12-12_06-12-12_06-12-12_06-12-12 1.1.1 1.458479761725 1.7902032069270002
cla_30-03-12_30-03-12_30-03-12_30-03-12_06-12-12_06-12-12_06-12-12_06-12-12_06-12-12_06-12-12 1.1.1 1.528551492025 2.061640624475
clh_11-02-08_11-02-08_06-10-08_06-10-08_06-10-08 9.9.1 0.9310898270540228 0.8744040675539345
clh_11-03-12_11-03-12_06-12-12_06-12-12_06-12-12 3.3.1 1.719074463560299 2.0334495163802
clh_12-02-08_11-02-08_06-10-08_06-10-08_06-10-08 9.9.1 1.750063619141936 0.7748687880093881
clh_12-03-12_11-03-12_06-12-12_06-12-12_06-12-12 7.7.1 2.072558755853168 0.7870574992231754
clh_17-12-12_17-12-12_01-03-12_01-03-12_01-03-12 2.2.1 1.776639735903751 2.2048312035450004
clh_35-11-03_35-11-03_02-01-03_01-01-03_01-01-03 5.5.1 2.1068190136672804 1.3898009426768003
cnw_30-03-12_30-03-12_30-03-12_30-03-12_06-12-12_06-12-12_06-12-12_06-12-12_06-12-12_06-12-12_06-12-12 1.2.1 1.479227150548 1.89015455724
cnw_30-03-12_30-03-12_30-03-12_30-03-12_07-12-12_07-12-12_07-12-12_07-12-12_07-12-12_07-12-12_07-12-12 1.2.1 1.3821280783695 1.8281393394495
coe_30-03-12_30-03-12_06-12-12_06-12-12_06-12-12_06-12-12_06-12-12 2.1.2 1.7371022191979997 1.6138797539619998
coe_30-03-12_30-03-12_07-12-12_07-12-12_07-12-12_07-12-12_07-12-12 2.1.2 1.734375608427 1.5493823012744996
coe_30-03-12_30-03-12_09-12-12_09-12-12_09-12-12_09-12-12_09-12-12 2.1.1 2.1248259858125 1.1484646645024998
cpa_30-04-05_11-04-05_01-02-05_01-02-05 1.1.3 3.1751196555390764 1.6920097094876312
cpa_30-04-05_11-04-05_02-02-05_02-02-05 1.1.3 1.4987603403994705 1.3070018039194702
cpa_30-04-05_11-04-05_04-02-05_04-02-05 1.1.3 2.5845947885572467 1.7008778499644155
cpa_30-04-05_12-04-05_01-02-05_01-02-05 1.1.3 2.099160130054596 1.5568475655576055
cpa_30-04-05_12-04-05_02-02-05_02-02-05 1.1.3 1.7100079655839475 1.227041665852895
cpd_30-04-05_11-04-05_01-02-05_01-02-05_01-02-05 2.1.3 3.783588973310364 1.5625377346649998
cpd_30-04-05_11-04-05_02-02-05_02-02-05_02-02-05 2.1.3 3.628483236500218 1.271751165084931
cpi_11-04-05_30-04-05_01-02-05_01-02-05_01-02-05 1.1.3 2.7318824029368614 1.7024159845577227
cpj_24-02-08_24-02-08_06-10-08_06-10-08_07-10-08 2.1.3 1.6337516597068884 1.692756233923166
cpj_24-02-08_24-02-08_06-10-08_07-10-08_06-10-08 2.1.3 1.608446620295028 1.657967466751797
cpj_24-02-08_24-02-08_07-10-08_06-10-08_06-10-08 2.1.3 1.808994162190333 1.572643737051223
cpj_31-01-01_31-01-01_06-08-01_06-08-01_07-08-01 2.1.3 1.6828309321395123 1.4953775678474996
cpj_31-03-12_31-03-12_06-12-12_06-12-12_06-12-12 3.1.3 3.6354321570540895 0.942356267283408
cpq_11-03-09_11-03-09_02-05-09_02-05-09_02-05-09_02-05-09 1.1.5 1.75667895132 0.8826353421700002
cpq_11-03-12_11-03-12_06-12-12_06-12-12_06-12-12_06-12-12 1.2.4 3.647118853640626 0.8477087065218748
cpq_11-03-12_12-03-12_06-12-12_06-12-12_06-12-12_06-12-12 2.1.3 3.8737058287806887 0.7488693670990856
cpq_11-05-09_11-05-09_01-03-09_01-03-09_01-03-09_01-03-09 1.1.5 2.598267354744 0.9127570270467998
cpq_12-03-09_11-03-09_02-05-09_02-05-09_02-05-09_02-05-09 1.1.4 1.8667513392165 0.84869989100875
cpq_12-03-12_11-03-12_06-12-12_06-12-12_06-12-12_06-12-12 1.1.3 2.4055744602145377 0.7562415102397761
cpq_12-03-12_12-03-12_06-12-12_06-12-12_06-12-12_06-12-12 1.1.3 2.430860894603357 0.7796510711139523
cpq_18-12-12_23-12-12_02-03-12_02-03-12_02-03-12_02-03-12 1.2.3 2.463436662598009 1.1463641402865234
cpq_18-12-12_23-12-12_03-03-12_03-03-12_03-03-12_03-03-12 1.1.4 2.0326329509575003 1.4452549450682506
cpq_18-12-12_23-12-12_04-03-12_04-03-12_04-03-12_04-03-12 1.2.4 2.6814743380620008 1.300832604369
cpq_20-12-12_20-12-12_02-03-12_02-03-12_02-03-12_02-03-12 1.1.4 1.3913481473055 0.9913975173
cpq_23-12-12_18-12-12_01-03-12_01-03-12_01-03-12_01-03-12 1.2.5 4.473477848514601 1.1083559779962002
cpq_23-12-12_18-12-12_02-03-12_02-03-12_02-03-12_02-03-12 1.2.4 3.854734773445875 1.044665842097625
cpq_23-12-12_18-12-12_03-03-12_03-03-12_03-03-12_03-03-12 1.1.3 1.998212602406233 1.7716365077524667
cpq_23-12-12_23-12-12_01-03-12_01-03-12_01-03-12_01-03-12 1.1.3 2.2396810115440093 1.771948642292033
cpq_23-12-12_23-12-12_03-03-12_03-03-12_03-03-12_03-03-12 1.1.3 1.7532886908017136 2.1343680901362854
cpq_23-12-12_23-12-12_04-03-12_04-03-12_04-03-12_04-03-12 1.1.3 2.2512618566918503 1.4703313858874014
cpq_35-11-03_35-11-03_01-01-03_01-01-03_01-01-03_01-01-03 2.1.2 1.5917996069520002 1.684619949568
cpq_35-11-03_35-11-03_03-01-03_03-01-03_03-01-03_03-01-03 1.1.3 2.02188596991328 1.7902394414015996
cps_30-04-05_11-04-05_01-02-05_01-02-05_01-02-05_01-02-05 1.1.3 3.1561143749528866 1.1821293631176943
cqb_24-02-08_24-02-08_07-10-08_07-10-08_07-10-08_07-10-08_07-10-08 1.1.3 1.615739938998678 1.6257005753483134
cqb_25-12-12_25-12-12_02-03-12_02-03-12_02-03-12_02-03-12_02-03-12 1.1.3 2.635390190301742 0.6821304145932582
cqb_31-03-12_31-03-12_06-12-12_06-12-12_06-12-12_06-12-12_06-12-12 2.1.4 4.270751699058 0.6756551377679999
cqc_31-02-05_31-02-05_01-04-05_01-04-05_01-04-05_01-04-05_01-04-05 1.1.3 1.2196631645412908 1.491855599570808
cqc_31-05-09_31-05-09_01-03-09_01-03-09_01-03-09_01-03-09_01-03-09 1.1.3 1.8453794640306915 1.6832481344153092
cqd_31-03-12_31-03-12_10-12-12_10-12-12_10-12-12_10-12-12_10-12-12_10-12-12 2.1.3 2.686659724100896 1.4220066687783015
cqj_11-03-12_11-03-12_11-03-12_06-12-12_06-12-12_06-12-12 2.2.4 5.345296249366875 0.8901335703010003
cqj_17-12-12_17-12-12_17-12-12_02-03-12_02-03-12_02-03-12 1.1.4 2.516700563406 0.4754759338664999
cqj_18-12-12_18-12-12_18-12-12_02-03-12_02-03-12_02-03-12 1.1.4 2.279160365471 0.6866897011287502
cqj_23-12-12_23-12-12_23-12-12_01-03-12_01-03-12_01-03-12 1.1.3 2.5158565594101647 1.7193530320773476
cqj_35-11-03_35-11-03_35-11-03_01-01-03_01-01-03_01-01-03 1.1.2 1.705677699348 1.660791444102
cqj_35-11-03_35-11-03_35-11-03_01-01-03_01-01-03_02-01-03 1.1.3 2.05677838564685 1.2610564405289997
cqj_35-11-03_35-11-03_35-11-03_01-01-03_02-01-03_02-01-03 2.2.3 2.2767424637802818 1.1688638601195
cqj_35-11-03_35-11-03_35-11-03_02-01-03_01-01-03_01-01-03 1.1.3 2.011994428102468 0.988067617780043
cqj_35-11-03_35-11-03_35-11-03_02-01-03_01-01-03_02-01-03 1.1.3 1.7855552700102026 1.1426459633191248
cqn_11-04-05_11-04-05_30-04-05_11-04-05_01-02-05_01-02-05_01-02-05_01-02-05_01-02-05 1.1.3 3.3932692960835693 1.7097390867396924
cqn_11-04-05_11-04-05_30-04-05_11-04-05_02-02-05_02-02-05_02-02-05_02-02-05_02-02-05 1.1.3 3.181365461186077 1.1271140796402648
cqn_11-04-05_11-04-05_30-04-05_11-04-05_03-02-05_03-02-05_03-02-05_03-02-05_03-02-05 1.1.3 2.3584471572680004 1.4637289417995791
cqo_25-12-12_20-12-12_25-12-12_02-03-12_02-03-12_02-03-12_02-03-12_02-03-12 1.1.4 2.3943958208305003 0.7206922449617498
cqu_11-04-05_11-04-05_11-04-05_30-04-05_01-02-05_01-02-05_01-02-05_01-02-05_01-02-05_01-02-05 1.1.3 2.920576839521656 1.81251945604423
cqu_11-04-05_11-04-05_11-04-05_30-04-05_02-02-05_02-02-05_02-02-05_02-02-05_02-02-05_02-02-05 1.1.3 2.650699862338094 1.312913672882094
cqz_30-04-05_12-04-05_30-04-05_01-02-05_01-02-05_01-02-05_01-02-05_01-02-05 1.1.3 2.948246452772521 1.3765780417353537
crb-b3_30-03-12_30-03-12_30-03-12_06-12-12_06-12-12_06-12-12_06-12-12 1.1.1 1.364925768768 1.986056204392
crb-b_30-02-05_30-04-05_None_None 2.2.2 2.08867023001 1.5762574510542502
crb-b_30-03-09_30-05-09_None_None 2.2.2 2.266358118651 1.698179074878
crb-b_30-03-12_30-03-12_06-12-12_06-12-12 1.1.2 1.3325868406425 1.9068815878650005
crb-b_30-04-05_30-02-05_None_None 2.2.2 2.353196871777749 1.62904801730725
crb-b_30-05-09_30-03-09_None_None 2.2.2 2.164051210464 1.6663887926729997
crb_30-03-12_06-12-12_06-12-12 1.1.2 1.3415079240945005 1.9035361815705003
cru_25-12-12_20-12-12_02-03-12_02-03-12_02-03-12_02-03-12 1.1.4 1.976594165765749 0.7209361021449999
cru_30-04-05_11-04-05_01-02-05_01-02-05_01-02-05_01-02-05 1.1.3 3.645921411141609 1.475225836179609
cru_30-04-05_12-04-05_01-02-05_01-02-05_01-02-05_01-02-05 1.1.3 2.7985707138966167 1.4262540094850222
cru_30-04-05_12-04-05_02-02-05_02-02-05_02-02-05_02-02-05 1.1.3 2.797028159716 1.2270790512271976
cru_31-03-12_16-03-12_06-12-12_06-12-12_06-12-12_06-12-12 1.1.3 2.080858263983007 0.8935097692804743
crx_11-04-05_30-04-05_11-04-05_01-02-05_01-02-05_01-02-05 1.1.3 1.4850664959488042 1.678790057792196
crx_16-03-12_31-03-12_16-03-12_06-12-12_06-12-12_06-12-12 2.2.4 3.300857237423063 1.0070733854253753
cry_11-03-12_11-03-12_11-03-12_06-12-12_06-12-12_06-12-12 2.2.4 4.425264755489689 0.6759702454099376
cry_12-03-12_12-03-12_12-03-12_06-12-12_06-12-12_06-12-12 1.1.3 2.689970501418901 0.8306513073100238
cry_17-12-12_17-12-12_17-12-12_02-03-12_02-03-12_02-03-12 1.1.3 4.164516629397709 0.5519949845692035
cry_23-12-12_23-12-12_23-12-12_01-03-12_01-03-12_01-03-12 1.1.3 2.6013626161182795 1.8105566671501216
cry_23-12-12_23-12-12_23-12-12_04-03-12_04-03-12_04-03-12 1.1.3 2.148853334998945 2.124532599044824
cry_35-11-03_35-11-03_35-11-03_01-01-03_01-01-03_02-01-03 1.1.3 3.059604446131202 1.152237489793137
cry_35-11-03_35-11-03_35-11-03_01-01-03_02-01-03_01-01-03 1.1.3 3.0144012589044435 1.1796301857777545
cry_35-11-03_35-11-03_35-11-03_03-01-03_03-01-03_03-01-03 1.1.3 1.875074440204547 1.80162090200668
ctn_11-02-04_30-03-04_None 2.2.2 1.4494919526168746 1.85554553529
ctn_11-02-05_30-04-05_None 1.1.1 2.03244116875 1.822693240135
ctn_11-03-04_30-02-04_None 2.2.2 1.7444698378443753 1.7698673113650003
ctn_11-03-09_30-05-09_None 1.1.1 1.410824894808 2.005632603072
ctn_11-04-05_30-02-05_None 1.1.1 1.7544032168649997 1.91212065156
ctn_11-05-09_30-03-09_None 1.1.1 1.886015625928 1.945004820136
ctn_12-02-04_30-03-04_None 2.2.2 1.535898282797375 1.7172285513013754
ctn_12-02-05_30-04-05_None 1.1.1 1.795261882626 1.811161947609
ctn_12-03-04_30-02-04_None 2.2.2 1.7164558370890004 1.5662917084841252
ctn_12-03-09_30-05-09_None 1.1.1 1.269141949952 1.8818813546879996
ctn_12-03-12_30-03-12_06-12-12 1.1.1 1.515805019253 2.2155185426850004
ctn_12-04-05_30-02-05_None 1.1.1 1.1130045488100002 1.725879780882
ctn_17-08-01_30-01-01_None 2.2.2 1.80134848437075 1.5541812585517498
ctn_17-10-08_30-02-08_None 2.2.2 2.6843564950225 1.7308764319775003
ctn_17-12-12_28-03-12_None 1.1.1 1.9588372532080005 1.689316648344
ctn_17-12-12_29-03-12_None 1.1.1 1.873247032359 1.7768212591929995
ctn_17-12-12_30-03-12_None 2.2.2 8.996441119518 0.8187523620659999
ctn_18-12-12_30-03-12_None 1.1.1 1.6569526201609996 1.755734749397
ctn_23-12-12_30-03-12_None 1.1.1 1.78247946135 1.7398793232799996
ctn_33-11-02_28-01-02_None 2.2.2 1.19206071534 1.7851404276749998
ctn_33-11-02_29-01-02_None 1.1.1 1.2792494997 1.7530456107
ctn_34-11-10_28-06-10_None 2.2.2 1.397265412275 1.9740090079800003
ctn_34-11-10_29-06-10_None 2.2.2 1.30143029145525 1.975768759305
ctn_35-11-03_28-01-03_None 1.1.1 1.22519478876 1.7736574378800003
ctn_35-11-03_29-01-03_None 1.1.1 1.439324881076 1.804890463421
ctn_35-11-03_30-01-03_None 2.2.2 2.253248343346 0.674990312997
ctn_36-11-11_28-07-11_None 2.2.2 1.0287677309687502 1.5894399394749996
ctn_36-11-11_29-07-11_None 1.1.1 1.0173518146120002 1.646503594701
cus_30-03-12_30-03-12_06-12-12_06-12-12_06-12-12_06-12-12 2.1.1 1.495396614312 2.027316215375999
dea_30-03-12_11-03-12_11-03-12_06-12-12_06-12-12_06-12-12_06-12-12_06-12-12 1.1.1 1.492925911064 2.104508184037
dea_30-03-12_12-03-12_12-03-12_06-12-12_06-12-12_06-12-12_06-12-12_06-12-12 1.1.1 1.6045060104000004 2.09275891464
dhc_31-03-12_31-03-12_31-03-12_31-03-12_31-03-12_06-12-12_06-12-12_06-12-12_06-12-12_06-12-12_06-12-12 1.1.3 2.660169966427158 0.9371834597084684
dhf_19-12-12_19-12-12_19-12-12_19-12-12_02-03-12_02-03-12_02-03-12_02-03-12_02-03-12_02-03-12_02-03-12 1.1.4 2.028640176756 0.79741130781625
dhf_23-12-12_23-12-12_23-12-12_23-12-12_01-03-12_01-03-12_01-03-12_01-03-12_01-03-12_01-03-12_01-03-12 1.1.3 2.7081411364200285 1.8848182109985052
dhh_11-03-12_11-03-12_11-03-12_11-03-12_06-12-12_06-12-12_06-12-12_06-12-12_06-12-12_06-12-12 1.1.4 4.427010865746 0.7762120345889998
dhh_17-12-12_17-12-12_17-12-12_17-12-12_01-03-12_01-03-12_01-03-12_01-03-12_01-03-12_01-03-12 4.2.4 2.5035006672652496 0.7462465175069998
dhh_17-12-12_17-12-12_17-12-12_17-12-12_02-03-12_02-03-12_02-03-12_02-03-12_02-03-12_02-03-12 1.1.3 4.827201771480938 0.521695863271469
dhh_23-12-12_23-12-12_23-12-12_23-12-12_02-03-12_02-03-12_02-03-12_02-03-12_02-03-12_02-03-12 1.1.3 2.0591101952331483 1.2763298802655192
dhh_35-11-03_35-11-03_35-11-03_35-11-03_01-01-03_01-01-03_01-01-03_01-01-03_01-01-03_01-01-03 1.1.3 2.731965960471129 1.1337012227029706
dhh_35-11-03_35-11-03_35-11-03_35-11-03_02-01-03_02-01-03_02-01-03_02-01-03_02-01-03_02-01-03 1.2.3 2.291462977888508 1.1666309155440493
dia-b3++_30-02-06_30-02-06_30-02-06_None_None 2.2.3 1.1157760656950904 1.583067052235195
dia-b3++_30-03-12_30-03-12_30-03-12_06-12-12_06-12-12 2.2.1 1.413991727459 1.89015455681625
dia-b3++_30-03-12_30-03-12_30-03-12_06-12-12_07-12-12 2.2.1 1.3625206280334996 1.8266059861400008
dia-b3++_30-03-12_30-03-12_30-03-12_07-12-12_06-12-12 2.2.1 1.3359711224209996 1.824482025691
dia-b3+_30-02-06_30-02-06_30-02-06_None_None 2.2.3 1.0889001723450151 1.647221459137463
dia-b3+_30-03-12_30-03-12_30-03-12_06-12-12_06-12-12 1.1.1 1.4273733523200005 1.8912696918240004
dia-b3+_30-03-12_30-03-12_30-03-12_06-12-12_07-12-12 1.1.1 1.3754050328850005 1.93759924693
dia-b3+_30-03-12_30-03-12_30-03-12_07-12-12_06-12-12 1.1.1 1.4469188695849995 1.808104632519
dia-b3+_30-03-12_30-03-12_30-03-12_07-12-12_07-12-12 1.1.1 1.39479885352 1.90973912793
dia-b3_30-02-06_30-02-06_30-02-06_None_None 2.2.2 1.1144754195625004 1.6479801347031255
dia-b3_30-03-12_30-03-12_30-03-12_06-12-12_06-12-12 1.1.1 1.3983798317279998 1.8957302343999995
dia-b3_30-03-12_30-03-12_30-03-12_06-12-12_07-12-12 1.1.1 1.344466963584 1.832977866624
dia-b3_30-03-12_30-03-12_30-03-12_07-12-12_06-12-12 1.1.1 1.426239440832 1.81598618304
dia-b4+_30-02-06_30-02-06_30-02-06_30-02-06_None_None_None 2.2.3 1.1071062532024925 1.6840671869024553
dia-b4+_30-03-12_30-03-12_30-03-12_30-03-12_06-12-12_06-12-12_06-12-12 1.1.1 1.4719787695800002 1.929184296495
dia-b4+_30-03-12_30-03-12_30-03-12_30-03-12_06-12-12_06-12-12_07-12-12 1.1.1 1.397565975442 1.941299850386
dia-b4+_30-03-12_30-03-12_30-03-12_30-03-12_06-12-12_07-12-12_06-12-12 1.1.1 1.401226694756 1.775467364784
dia-b4+_30-03-12_30-03-12_30-03-12_30-03-12_06-12-12_07-12-12_07-12-12 1.1.1 1.4210444155749995 1.86291662071
dia-b4+_30-03-12_30-03-12_30-03-12_30-03-12_07-12-12_06-12-12_06-12-12 1.1.1 1.4382155981889997 1.873379167989
dia-b4+_30-03-12_30-03-12_30-03-12_30-03-12_07-12-12_06-12-12_07-12-12 1.1.1 1.3940756894400002 1.85461855113
dia-b4+_30-03-12_30-03-12_30-03-12_30-03-12_07-12-12_07-12-12_06-12-12 1.1.1 1.3444669642170004 1.934927969039
dia-b4+_30-03-12_30-03-12_30-03-12_30-03-12_07-12-12_07-12-12_07-12-12 1.1.1 1.388716881775 1.86919264963
dia-b4_30-02-06_30-02-06_30-02-06_30-02-06_None_None_None 2.2.2 1.1489370282187503 1.6268480161875003
dia-b4_30-03-12_30-03-12_30-03-12_30-03-12_06-12-12_06-12-12_06-12-12 1.1.1 1.3749619876559998 1.936990245384
dia-b4_30-03-12_30-03-12_30-03-12_30-03-12_06-12-12_06-12-12_07-12-12 1.1.1 1.317457708175 1.852708899275
dia-b4_30-03-12_30-03-12_30-03-12_30-03-12_06-12-12_07-12-12_06-12-12 1.1.1 1.4403914167000005 1.8777308045500003
dia-b4_30-03-12_30-03-12_30-03-12_30-03-12_06-12-12_07-12-12_07-12-12 1.1.1 1.34871488448 1.8786430162560004
dia-b4_30-03-12_30-03-12_30-03-12_30-03-12_07-12-12_06-12-12_06-12-12 1.1.1 1.4156196385919997 1.851031530432
dia-b4_30-03-12_30-03-12_30-03-12_30-03-12_07-12-12_06-12-12_07-12-12 1.1.1 1.3349519443259996 1.8297243432720005
dia-b4_30-03-12_30-03-12_30-03-12_30-03-12_07-12-12_07-12-12_06-12-12 1.1.1 1.3556971182859998 1.81001642801
dia-b4_30-03-12_30-03-12_30-03-12_30-03-12_07-12-12_07-12-12_07-12-12 1.1.1 1.3086375864869997 1.831687156299
dia-b5_30-03-12_30-03-12_30-03-12_30-03-12_30-03-12_06-12-12_06-12-12_06-12-12_06-12-12 1.1.1 1.3660409042 1.8879242863759995
dia-b_30-02-05_30-04-05_None 2.2.2 1.90103419561075 1.5303526108342496
dia-b_30-02-06_30-02-06_None 2.2.3 1.1166429377075524 1.6264145021549854
dia-b_30-03-09_30-05-09_None 2.2.2 1.7565575931089998 1.6640767721489995
dia-b_30-03-12_30-03-12_06-12-12 1.1.1 1.5121236451140003 1.9224934839060008
dia-b_30-04-05_30-02-05_None 2.2.2 2.06973448341925 1.51084305374075
dia-b_30-05-09_30-03-09_None 2.2.2 1.750199536668 1.73979544431
dia-f_11-03-12_06-12-12_06-12-12 1.1.7 2.5563064518426604 0.7502645196172955
dia-f_35-11-03_01-01-03_02-01-03 1.1.5 2.243628861756 0.9336715622016
dia-f_35-11-03_02-01-03_01-01-03 1.1.5 2.4770510197186 0.9784964016152
dia-g_13-03-09_05-05-09_05-05-09_05-05-09 1.1.1 8.931176925524001 47.521903312263
dia-g_14-02-05_05-04-05_05-04-05_05-04-05 1.1.1 8.672778565368 45.988240910844
dia-g_14-03-09_05-05-09_05-05-09_05-05-09 1.1.1 8.6205287648 46.01417420479999
dia-g_14-05-09_05-03-09_05-03-09_05-03-09 1.1.1 8.9156798656 47.2459302928
dia-g_15-02-04_05-03-04_05-03-04_05-03-04 1.1.1 9.558850819154 52.19532644744599
dia-g_15-02-05_03-04-05_03-04-05_03-04-05 1.1.1 8.418796363264999 44.88616858790501
dia-g_15-02-05_05-04-05_05-04-05_05-04-05 1.1.1 11.030068878336005 59.28827208839999
dia-g_15-02-06_04-02-06_03-02-06_03-02-06 1.1.1 9.146710991 50.70252943799999
dia-g_15-02-06_04-02-06_03-02-06_04-02-06 1.1.1 9.1009857609 49.0863494583
dia-g_15-02-06_05-02-06_05-02-06_05-02-06 1.1.1 9.949237075115 54.392228993258
dia-g_15-03-09_03-05-09_03-05-09_03-05-09 1.1.1 8.929738096716 48.67578193493
dia-g_15-03-09_05-05-09_05-05-09_05-05-09 1.1.1 12.458431108875 68.898154864125
dia-g_15-04-05_03-02-05_03-02-05_03-02-05 1.1.1 8.570846137955002 45.60264555652001
dia-g_15-04-05_05-02-05_05-02-05_05-02-05 1.1.1 11.740922458704 63.312220938384016
dia-g_15-05-09_03-03-09_03-03-09_03-03-09 1.1.1 8.884264719562 47.757836304584
dia-g_15-05-09_05-03-09_05-03-09_05-03-09 1.1.1 11.922928907625 66.181447305
dia_30-02-06_None 2.3.2 1.0980031347474704 1.5774314218300227
dia_30-03-12_06-12-12 1.1.1 1.3626954972930003 1.7909075029890007
dma_11-02-08_11-02-08_06-10-08_06-10-08_06-10-08_06-10-08_06-10-08 9.1.1 1.0410265520850177 0.8795685580111894
dma_11-03-12_11-03-12_06-12-12_06-12-12_06-12-12_06-12-12_06-12-12 3.1.1 1.601315264351507 2.065517855072766
dma_12-03-12_11-03-12_06-12-12_06-12-12_06-12-12_06-12-12_06-12-12 7.1.1 2.071709010336389 0.7681807528221352
dma_12-03-12_12-03-12_06-12-12_06-12-12_06-12-12_06-12-12_06-12-12 6.1.1 2.165688875453 0.8189619514077917
dma_12-03-12_12-03-12_09-12-12_09-12-12_09-12-12_09-12-12_09-12-12 2.1.1 1.85039914389 1.924336868667
dma_15-03-09_15-03-09_05-05-09_05-05-09_05-05-09_05-05-09_05-05-09 1.1.1 9.06378880425 48.63464115600001
dma_15-05-09_15-05-09_05-03-09_05-03-09_05-03-09_05-03-09_05-03-09 1.1.1 9.430359383250002 50.45590070437499
dma_17-10-08_17-10-08_01-02-08_01-02-08_01-02-08_01-02-08_01-02-08 9.1.1 1.3236893577249835 0.8388704717388099
dma_17-12-12_17-12-12_02-03-12_02-03-12_02-03-12_02-03-12_02-03-12 6.1.1 5.042532112628782 0.567282304787463
dma_23-08-01_23-08-01_02-01-01_02-01-01_02-01-01_02-01-01_02-01-01 5.1.2 1.2609728130222002 1.6547854463748002
dma_35-11-03_35-11-03_02-01-03_02-01-03_02-01-03_02-01-03_02-01-03 5.1.1 1.9552707021594 1.0065377570477998
dmc_11-02-06_30-02-06_None_None_None_None 2.3.2 1.595863627432228 1.3357542788109131
dmf_30-02-06_11-02-06_None_None_None 1.2.3 1.1734647667885358 2.049228125954345
dmf_30-03-12_11-03-12_06-12-12_06-12-12_06-12-12 1.2.2 1.4890763318219995 2.0512667309645
dmf_30-03-12_11-03-12_07-12-12_07-12-12_07-12-12 1.2.2 1.455137659438 1.9356126169400003
dmf_30-03-12_12-03-12_06-12-12_06-12-12_06-12-12 1.2.2 1.7448315552654998 1.868354720839
dmf_30-03-12_12-03-12_07-12-12_07-12-12_07-12-12 1.2.2 1.7388463680719997 1.7373826926779998
doh_30-03-12_30-03-12_30-03-12_30-03-12_06-12-12_06-12-12_06-12-12_06-12-12_06-12-12_06-12-12_06-12-12 1.1.1 1.44521551971 2.06339412618
edi-c_30-02-08_30-02-08_06-10-08_06-10-08_06-10-08 2.2.2 0.9870556280578752 1.7706233689419997
edi-c_30-03-12_30-03-12_06-12-12_06-12-12_06-12-12 2.2.2 2.030661621444376 1.6216299450326253
edi-c_30-03-12_30-03-12_06-12-12_06-12-12_07-12-12 1.2.2 2.2717815207935 1.2330322583125
edi-c_30-03-12_30-03-12_06-12-12_07-12-12_06-12-12 2.2.2 1.9894915172936252 1.61232118348425
edi-c_30-03-12_30-03-12_06-12-12_07-12-12_07-12-12 2.2.2 1.954736352789375 1.6301041073525002
edi-c_30-03-12_30-03-12_07-12-12_06-12-12_06-12-12 2.2.2 2.62024715901225 1.2722748501857502
edi-c_30-03-12_30-03-12_07-12-12_06-12-12_07-12-12 2.2.2 1.874106632155 1.555285495085
edi-c_30-03-12_30-03-12_07-12-12_07-12-12_06-12-12 2.2.2 2.721398635596876 1.3063134231481257
edi-c_30-03-12_30-03-12_07-12-12_07-12-12_07-12-12 2.2.2 2.799734326615 1.2161916166085
edi-c_30-03-12_30-03-12_08-12-12_08-12-12_08-12-12 1.1.1 1.544363237726 1.868320938514
edi-c_30-03-12_30-03-12_08-12-12_08-12-12_09-12-12 1.1.1 1.7528870598750002 1.80964721229
edi-c_30-03-12_30-03-12_09-12-12_08-12-12_08-12-12 1.1.1 1.9432005120900004 1.7617906131950003
edi-c_30-03-12_30-03-12_09-12-12_08-12-12_09-12-12 1.1.1 1.85674661803 1.632115692034
edi-c_30-03-12_30-03-12_09-12-12_09-12-12_08-12-12 1.1.1 1.936606653765 1.605888932925
eec_17-12-12_31-03-12_28-03-12_None_None 2.2.1 1.80701365063275 1.9415975868765
eec_17-12-12_31-03-12_29-03-12_None_None 2.2.1 1.919249191071 1.972267124526
eec_33-11-02_31-01-02_28-01-02_None_None 2.2.1 1.8220166522525 1.84247780182325
eec_33-11-02_31-01-02_29-01-02_None_None 2.2.1 1.4561976652909998 1.8753772804302504
eec_34-11-10_31-06-10_28-06-10_None_None 2.2.1 1.58924536028125 2.0378464286249995
eec_34-11-10_31-06-10_29-06-10_None_None 2.2.1 1.600854540736 2.105430104712
eed_17-12-12_31-03-12_28-03-12_None_None 2.2.1 1.765741243518 1.9439901901875
eed_17-12-12_31-03-12_29-03-12_None_None 2.2.1 1.856805847224 2.0217505290840005
eed_33-11-02_31-01-02_28-01-02_None_None 2.2.1 1.835657418633 1.8103245667835
eed_33-11-02_31-01-02_29-01-02_None_None 2.2.1 2.0141532981407497 1.7993356268902505
eed_34-11-10_31-06-10_28-06-10_None_None 2.2.1 2.1428799391562503 1.9298680533125008
eed_34-11-10_31-06-10_29-06-10_None_None 2.2.1 2.220323971272 1.9780894026080005
epz_28-03-12_17-12-12_31-03-12_None_None 1.1.1 1.82701879296 1.9447758636
epz_29-03-12_17-12-12_31-03-12_None_None 1.1.1 1.883977737684 1.9984801440469997
eta-c_11-03-12_06-12-12_06-12-12 1.1.2 2.493972157358 2.1406944824539997
eta-c_11-03-12_06-12-12_07-12-12 1.1.2 2.411576825542 1.9382950544055
eta-c_11-03-12_07-12-12_06-12-12 1.1.2 2.3985612497845 1.953781475269
eta-c_12-03-12_06-12-12_06-12-12 1.1.3 3.066086022912714 1.9919553961744283
eta-c_17-12-12_01-03-12_01-03-12 1.1.2 3.5580108686759995 2.285790670361
eta-c_17-12-12_01-03-12_02-03-12 1.1.2 3.860111747754 1.991454608454
eta-c_17-12-12_02-03-12_01-03-12 1.1.3 3.300408165696 2.12058939735617
eta-c_17-12-12_02-03-12_02-03-12 1.4.2 5.387735642700001 0.3792899785274998
etb_15-03-09_05-05-09_05-05-09 1.1.1 8.694151208239 46.809639871463006
etc_15-02-05_15-02-05_05-04-05_05-04-05 1.1.1 9.798877093506 51.963341709842
etc_15-02-06_15-02-06_05-02-06_05-02-06 1.1.1 10.186684917474 54.731440196628
etc_15-03-09_15-03-09_05-05-09_05-05-09 1.1.1 9.908446924474 53.999600371657
etc_15-04-05_15-04-05_05-02-05_05-02-05 1.1.1 9.736106134376998 51.46778150619198
etc_15-05-09_15-05-09_05-03-09_05-03-09 1.1.1 9.598186885943 53.035696408534
etd_15-02-05_05-04-05_05-04-05_05-04-05 1.1.1 8.884109657663998 46.967360651136
etd_15-02-06_05-02-06_05-02-06_05-02-06 1.1.1 9.038732882881 49.24120148688499
etd_15-03-09_05-05-09_05-05-09_05-05-09 1.1.1 8.968465732 48.722971416
etd_15-04-05_05-02-05_05-02-05_05-02-05 1.1.1 8.718922923264 47.059131059136
etd_15-05-09_05-03-09_05-03-09_05-03-09 1.1.1 8.961840962499998 47.9935106855
eth_15-03-09_15-03-09_05-05-09_05-05-09_05-05-09_05-05-09 1.1.1 8.530494859500001 46.60598951799999
eti_35-11-03_35-11-03_01-01-03_01-01-03_01-01-03_01-01-03 1.1.2 2.159111999508 1.551277293198
eti_35-11-03_35-11-03_04-01-03_04-01-03_04-01-03_04-01-03 1.1.3 2.080260070597713 1.495541201417745
etm_35-11-03_35-11-03_01-01-03_01-01-03_01-01-03_01-01-03 3.1.1 2.7005640211909703 1.5096005853112888
eto_11-03-12_12-03-12_07-12-12_07-12-12_07-12-12 1.1.1 2.474017751793 1.383243412761
eto_12-03-12_12-03-12_09-12-12_09-12-12_09-12-12 1.1.1 2.40982213472 1.1630521439159998
fes_11-03-12_06-12-12_06-12-12 2.2.3 4.28559466270755 1.0435359787649503
fes_11-05-09_02-03-09_01-03-09 1.2.6 2.226202059513165 0.8749130220631807
fes_12-03-12_06-12-12_07-12-12 2.2.3 3.8844852573487514 0.7304859552828665
fes_17-12-12_01-03-12_02-03-12 2.2.4 3.1320863853412506 0.5384007698748751
fes_17-12-12_02-03-12_01-03-12 1.2.4 3.3232065089801246 0.442137626709375
fes_18-12-12_02-03-12_02-03-12 1.1.4 2.45785249835525 0.77694307651525
fes_19-12-12_02-03-12_01-03-12 1.1.4 1.218336056448 0.867136658304
fes_23-12-12_01-03-12_01-03-12 2.2.3 2.239438406928014 1.721609137890085
fes_23-12-12_02-03-12_01-03-12 3.2.5 3.368367560778075 0.9799487246762378
fes_23-12-12_04-03-12_03-03-12 2.1.3 2.5818751312800003 1.7167130537720083
fes_23-12-12_04-03-12_04-03-12 2.2.4 2.33599537313325 1.4933853873116254
fes_35-11-03_01-01-03_02-01-03 2.2.3 2.5848242318463344 1.3716024310579984
fes_35-11-03_02-01-03_01-01-03 2.2.3 2.2612357811699466 0.9560853809934892
ffc-a_11-03-09_11-03-09_11-03-09_11-03-09_05-05-09_05-05-09_05-05-09_05-05-09_05-05-09_05-05-09_05-05-09 1.1.1 9.308543470602 49.970677904583
ffc-a_11-04-05_11-04-05_11-04-05_11-04-05_05-02-05_05-02-05_05-02-05_05-02-05_05-02-05_05-02-05_05-02-05 1.1.1 9.50210912792 50.01186255702
ffc-a_11-05-09_11-05-09_11-05-09_11-05-09_05-03-09_05-03-09_05-03-09_05-03-09_05-03-09_05-03-09_05-03-09 1.1.1 9.643174136750002 51.00011805268801
ffc-a_12-03-09_12-03-09_12-03-09_12-03-09_05-05-09_05-05-09_05-05-09_05-05-09_05-05-09_05-05-09_05-05-09 1.1.1 9.149738974672 48.76087665703999
ffc-a_13-02-04_13-02-04_13-02-04_13-02-04_05-03-04_05-03-04_05-03-04_05-03-04_05-03-04_05-03-04_05-03-04 1.1.1 12.318324187135005 66.8582833901
ffc-a_13-02-05_13-02-05_13-02-05_13-02-05_03-04-05_03-04-05_03-04-05_03-04-05_03-04-05_03-04-05_03-04-05 1.1.1 9.710991985661998 51.899239313042
ffc-a_13-02-05_13-02-05_13-02-05_13-02-05_04-04-05_04-04-05_04-04-05_04-04-05_04-04-05_04-04-05_04-04-05 1.1.1 8.784074183273999 45.795139517556
ffc-a_13-02-06_13-02-06_13-02-06_13-02-06_03-02-06_03-02-06_03-02-06_03-02-06_03-02-06_03-02-06_03-02-06 1.1.1 11.512421272079996 63.53150998296
ffc-a_13-02-06_13-02-06_13-02-06_13-02-06_04-02-06_04-02-06_04-02-06_04-02-06_04-02-06_04-02-06_04-02-06 1.1.1 10.103845413699998 54.68709050347499
ffc-a_13-03-09_13-03-09_13-03-09_13-03-09_03-05-09_03-05-09_03-05-09_03-05-09_03-05-09_03-05-09_03-05-09 1.1.1 11.561889228156002 62.305736396174
ffc-a_13-03-09_13-03-09_13-03-09_13-03-09_04-05-09_04-05-09_04-05-09_04-05-09_04-05-09_04-05-09_04-05-09 1.1.1 10.125919142997 55.48471369246401
ffc-a_13-04-05_13-04-05_13-04-05_13-04-05_03-02-05_03-02-05_03-02-05_03-02-05_03-02-05_03-02-05_03-02-05 1.1.1 10.723712128536 58.227757255228
ffc-a_13-04-05_13-04-05_13-04-05_13-04-05_04-02-05_04-02-05_04-02-05_04-02-05_04-02-05_04-02-05_04-02-05 1.1.1 9.742960472193 52.48686545586901
ffc-a_13-05-09_13-05-09_13-05-09_13-05-09_03-03-09_03-03-09_03-03-09_03-03-09_03-03-09_03-03-09_03-03-09 1.1.1 10.9122308343 58.512114854968
ffc-a_13-05-09_13-05-09_13-05-09_13-05-09_04-03-09_04-03-09_04-03-09_04-03-09_04-03-09_04-03-09_04-03-09 1.1.1 10.39978705304 55.132744614829015
ffc-a_14-02-04_14-02-04_14-02-04_14-02-04_05-03-04_05-03-04_05-03-04_05-03-04_05-03-04_05-03-04_05-03-04 1.1.1 11.961816551320997 65.480238820941
ffc-a_14-02-05_14-02-05_14-02-05_14-02-05_03-04-05_03-04-05_03-04-05_03-04-05_03-04-05_03-04-05_03-04-05 1.1.1 10.4527764117 56.4776645426
ffc-a_14-02-05_14-02-05_14-02-05_14-02-05_04-04-05_04-04-05_04-04-05_04-04-05_04-04-05_04-04-05_04-04-05 1.1.1 9.108754236526 47.363277614936
ffc-a_14-02-06_14-02-06_14-02-06_14-02-06_03-02-06_03-02-06_03-02-06_03-02-06_03-02-06_03-02-06_03-02-06 1.1.1 9.171952889272 48.87781414202801
ffc-a_14-03-09_14-03-09_14-03-09_14-03-09_03-05-09_03-05-09_03-05-09_03-05-09_03-05-09_03-05-09_03-05-09 1.1.1 10.873682332721996 59.662865388918
ffc-a_14-03-09_14-03-09_14-03-09_14-03-09_04-05-09_04-05-09_04-05-09_04-05-09_04-05-09_04-05-09_04-05-09 1.1.1 9.6758947467 52.265702147373005
ffc-a_14-04-05_14-04-05_14-04-05_14-04-05_03-02-05_03-02-05_03-02-05_03-02-05_03-02-05_03-02-05_03-02-05 1.1.1 10.607744248675004 57.37166672125
ffc-a_14-04-05_14-04-05_14-04-05_14-04-05_04-02-05_04-02-05_04-02-05_04-02-05_04-02-05_04-02-05_04-02-05 1.1.1 9.560187707956 50.557488234252
ffc-a_14-05-09_14-05-09_14-05-09_14-05-09_03-03-09_03-03-09_03-03-09_03-03-09_03-03-09_03-03-09_03-03-09 1.1.1 11.130372906928 59.37359701754801
ffc-a_14-05-09_14-05-09_14-05-09_14-05-09_04-03-09_04-03-09_04-03-09_04-03-09_04-03-09_04-03-09_04-03-09 1.1.1 10.10593451322 53.87988712813201
ffc-a_15-01-01_15-01-01_15-01-01_15-01-01_10-08-01_10-08-01_10-08-01_10-08-01_10-08-01_10-08-01_10-08-01 1.1.1 11.630379060262 64.22792159377201
ffc-a_15-02-04_15-02-04_15-02-04_15-02-04_01-03-04_01-03-04_01-03-04_01-03-04_01-03-04_01-03-04_01-03-04 1.1.1 9.547423616639998 52.97447427792001
ffc-a_15-02-04_15-02-04_15-02-04_15-02-04_03-03-04_03-03-04_03-03-04_03-03-04_03-03-04_03-03-04_03-03-04 1.1.1 12.607013593439994 70.504358453352
ffc-a_15-02-04_15-02-04_15-02-04_15-02-04_04-03-04_04-03-04_04-03-04_04-03-04_04-03-04_04-03-04_04-03-04 1.1.1 11.287191966000998 62.79164588802
ffc-a_15-02-05_15-02-05_15-02-05_15-02-05_01-04-05_01-04-05_01-04-05_01-04-05_01-04-05_01-04-05_01-04-05 1.1.1 11.214971480922 60.61408049046899
ffc-a_15-02-05_15-02-05_15-02-05_15-02-05_02-04-05_02-04-05_02-04-05_02-04-05_02-04-05_02-04-05_02-04-05 1.1.1 8.73183151113 47.81923609197
ffc-a_15-02-05_15-02-05_15-02-05_15-02-05_03-04-05_03-04-05_03-04-05_03-04-05_03-04-05_03-04-05_03-04-05 1.1.1 14.1810732531 78.329695663206
ffc-a_15-02-05_15-02-05_15-02-05_15-02-05_04-04-05_04-04-05_04-04-05_04-04-05_04-04-05_04-04-05_04-04-05 1.1.1 12.13209019012 67.37740366014
ffc-a_15-02-06_15-02-06_15-02-06_15-02-06_01-02-06_01-02-06_01-02-06_01-02-06_01-02-06_01-02-06_01-02-06 1.1.1 11.123495465309002 60.97304497485201
ffc-a_15-02-06_15-02-06_15-02-06_15-02-06_02-02-06_02-02-06_02-02-06_02-02-06_02-02-06_02-02-06_02-02-06 1.1.1 10.110083453375 55.6923926575
ffc-a_15-02-06_15-02-06_15-02-06_15-02-06_03-02-06_03-02-06_03-02-06_03-02-06_03-02-06_03-02-06_03-02-06 1.1.1 13.85660901825 77.65739855092501
ffc-a_15-02-06_15-02-06_15-02-06_15-02-06_04-02-06_04-02-06_04-02-06_04-02-06_04-02-06_04-02-06_04-02-06 1.1.1 12.651498445112995 69.787859284468
ffc-a_15-02-08_15-02-08_15-02-08_15-02-08_10-10-08_10-10-08_10-10-08_10-10-08_10-10-08_10-10-08_10-10-08 1.1.1 11.32907419946 62.65458725902899
ffc-a_15-03-09_15-03-09_15-03-09_15-03-09_01-05-09_01-05-09_01-05-09_01-05-09_01-05-09_01-05-09_01-05-09 1.1.1 12.782193142500002 70.07751428258001
ffc-a_15-03-09_15-03-09_15-03-09_15-03-09_02-05-09_02-05-09_02-05-09_02-05-09_02-05-09_02-05-09_02-05-09 1.1.1 10.954735396454 60.366251402892
ffc-a_15-03-09_15-03-09_15-03-09_15-03-09_03-05-09_03-05-09_03-05-09_03-05-09_03-05-09_03-05-09_03-05-09 1.1.1 16.090381994365003 89.48389894506299
ffc-a_15-03-09_15-03-09_15-03-09_15-03-09_04-05-09_04-05-09_04-05-09_04-05-09_04-05-09_04-05-09_04-05-09 1.1.1 14.447789048152996 79.157764296323
ffc-a_15-03-12_15-03-12_15-03-12_15-03-12_10-12-12_10-12-12_10-12-12_10-12-12_10-12-12_10-12-12_10-12-12 1.1.1 10.68461911103 58.042354326246006
ffc-a_15-04-05_15-04-05_15-04-05_15-04-05_01-02-05_01-02-05_01-02-05_01-02-05_01-02-05_01-02-05_01-02-05 1.1.1 12.167118629589 66.42342857201699
ffc-a_15-04-05_15-04-05_15-04-05_15-04-05_02-02-05_02-02-05_02-02-05_02-02-05_02-02-05_02-02-05_02-02-05 1.1.1 10.500793478025 57.941371627825
ffc-a_15-04-05_15-04-05_15-04-05_15-04-05_03-02-05_03-02-05_03-02-05_03-02-05_03-02-05_03-02-05_03-02-05 1.1.1 15.646280171886 86.05505289747602
ffc-a_15-04-05_15-04-05_15-04-05_15-04-05_04-02-05_04-02-05_04-02-05_04-02-05_04-02-05_04-02-05_04-02-05 1.1.1 14.351007910580002 77.9631179569
ffc-a_15-05-09_15-05-09_15-05-09_15-05-09_01-03-09_01-03-09_01-03-09_01-03-09_01-03-09_01-03-09_01-03-09 1.1.1 12.7851831292 69.89273310452
ffc-a_15-05-09_15-05-09_15-05-09_15-05-09_02-03-09_02-03-09_02-03-09_02-03-09_02-03-09_02-03-09_02-03-09 1.1.1 11.271618605918 61.92426051609001
ffc-a_15-05-09_15-05-09_15-05-09_15-05-09_03-03-09_03-03-09_03-03-09_03-03-09_03-03-09_03-03-09_03-03-09 1.1.1 15.831928788452 88.394593186543
ffc-a_15-05-09_15-05-09_15-05-09_15-05-09_04-03-09_04-03-09_04-03-09_04-03-09_04-03-09_04-03-09_04-03-09 1.1.1 14.786604495014997 81.84469348076897
ffc-a_16-02-05_16-02-05_16-02-05_16-02-05_05-04-05_05-04-05_05-04-05_05-04-05_05-04-05_05-04-05_05-04-05 1.1.1 12.450510022132 68.401910199416
ffc-a_16-02-06_16-02-06_16-02-06_16-02-06_03-02-06_03-02-06_03-02-06_03-02-06_03-02-06_03-02-06_03-02-06 1.1.1 9.417457079982 50.927758771734
ffc-a_16-02-06_16-02-06_16-02-06_16-02-06_05-02-06_05-02-06_05-02-06_05-02-06_05-02-06_05-02-06_05-02-06 1.1.1 12.948991137396 70.89884950519401
ffc-a_16-03-09_16-03-09_16-03-09_16-03-09_03-05-09_03-05-09_03-05-09_03-05-09_03-05-09_03-05-09_03-05-09 1.1.1 9.229429337435002 50.23593204141999
ffc-a_16-03-09_16-03-09_16-03-09_16-03-09_05-05-09_05-05-09_05-05-09_05-05-09_05-05-09_05-05-09_05-05-09 1.1.1 13.179833915049 72.505144749983
ffc-a_16-04-05_16-04-05_16-04-05_16-04-05_05-02-05_05-02-05_05-02-05_05-02-05_05-02-05_05-02-05_05-02-05 1.1.1 12.124889615728 66.192432269372
ffc-a_16-05-09_16-05-09_16-05-09_16-05-09_03-03-09_03-03-09_03-03-09_03-03-09_03-03-09_03-03-09_03-03-09 1.1.1 8.863030890415 47.17318529132999
ffc-a_16-05-09_16-05-09_16-05-09_16-05-09_05-03-09_05-03-09_05-03-09_05-03-09_05-03-09_05-03-09_05-03-09 1.1.1 12.823216363944 69.775247823688
ffc-a_19-08-01_19-08-01_19-08-01_19-08-01_05-01-01_05-01-01_05-01-01_05-01-01_05-01-01_05-01-01_05-01-01 1.1.1 9.5035683114 51.953125816512
ffc-a_19-10-08_19-10-08_19-10-08_19-10-08_05-02-08_05-02-08_05-02-08_05-02-08_05-02-08_05-02-08_05-02-08 1.1.1 9.628271236981998 52.892122475506
ffc-a_19-12-12_19-12-12_19-12-12_19-12-12_05-03-12_05-03-12_05-03-12_05-03-12_05-03-12_05-03-12_05-03-12 1.1.1 9.28321110216 49.76757938273399
ffc-a_20-08-01_20-08-01_20-08-01_20-08-01_05-01-01_05-01-01_05-01-01_05-01-01_05-01-01_05-01-01_05-01-01 1.1.1 11.738075562303996 64.73158254617599
ffc-a_20-10-08_20-10-08_20-10-08_20-10-08_05-02-08_05-02-08_05-02-08_05-02-08_05-02-08_05-02-08_05-02-08 1.1.1 10.909875116168998 60.45360915788099
ffc-a_20-12-12_20-12-12_20-12-12_20-12-12_05-03-12_05-03-12_05-03-12_05-03-12_05-03-12_05-03-12_05-03-12 1.1.1 11.212502720592 61.36031844628801
ffc-a_21-08-01_21-08-01_21-08-01_21-08-01_05-01-01_05-01-01_05-01-01_05-01-01_05-01-01_05-01-01_05-01-01 1.1.1 9.566417034422 51.86196828304399
ffc-a_21-10-08_21-10-08_21-10-08_21-10-08_05-02-08_05-02-08_05-02-08_05-02-08_05-02-08_05-02-08_05-02-08 1.1.1 9.414312286753 50.632314398342
ffc-a_21-12-12_21-12-12_21-12-12_21-12-12_05-03-12_05-03-12_05-03-12_05-03-12_05-03-12_05-03-12_05-03-12 1.1.1 9.548327480292 51.32282890758
ffc-a_32-02-04_32-02-04_32-02-04_32-02-04_05-03-04_05-03-04_05-03-04_05-03-04_05-03-04_05-03-04_05-03-04 1.1.1 11.673934135127997 63.05413193259002
ffc-a_32-02-05_32-02-05_32-02-05_32-02-05_03-04-05_03-04-05_03-04-05_03-04-05_03-04-05_03-04-05_03-04-05 1.1.1 8.484279748399999 43.648741471935
ffc-a_32-02-06_32-02-06_32-02-06_32-02-06_03-02-06_03-02-06_03-02-06_03-02-06_03-02-06_03-02-06_03-02-06 1.1.1 9.063625209207 48.457434683616015
ffc-a_32-02-06_32-02-06_32-02-06_32-02-06_04-02-06_04-02-06_04-02-06_04-02-06_04-02-06_04-02-06_04-02-06 1.1.1 9.500199594375 51.172857428704994
ffc-a_32-03-09_32-03-09_32-03-09_32-03-09_03-05-09_03-05-09_03-05-09_03-05-09_03-05-09_03-05-09_03-05-09 1.1.1 8.678126619258 45.873384029589
ffc-a_32-03-09_32-03-09_32-03-09_32-03-09_04-05-09_04-05-09_04-05-09_04-05-09_04-05-09_04-05-09_04-05-09 1.1.1 9.850892326464 52.87742377187199
ffc-a_32-04-05_32-04-05_32-04-05_32-04-05_03-02-05_03-02-05_03-02-05_03-02-05_03-02-05_03-02-05_03-02-05 1.1.1 8.475219901934999 43.78410623676501
ffc-a_32-04-05_32-04-05_32-04-05_32-04-05_04-02-05_04-02-05_04-02-05_04-02-05_04-02-05_04-02-05_04-02-05 1.1.1 8.57728863442 44.90902033615
ffc-a_32-05-09_32-05-09_32-05-09_32-05-09_03-03-09_03-03-09_03-03-09_03-03-09_03-03-09_03-03-09_03-03-09 1.1.1 10.177085489136 53.72606684577
ffc_31-03-12_31-03-12_17-12-12_None_None 1.1.2 2.1359683963695 2.053178923642
ffc_31-06-10_31-06-10_34-11-10_None_None 2.2.3 1.2935883159473005 1.89927549684865
ffd_28-06-10_31-06-10_34-11-10_34-11-10_None_None_None_None 1.1.2 2.218481412566 2.044737105562
ffd_29-01-02_31-01-02_33-11-02_33-11-02_None_None_None_None 1.1.2 2.0302496469075 1.9387167886874996
ffd_29-06-10_31-06-10_34-11-10_34-11-10_None_None_None_None 1.1.2 2.179555489588 1.922157925894
ffi-a_11-04-05_11-04-05_11-04-05_11-04-05_11-04-05_01-02-05_01-02-05_01-02-05_01-02-05_01-02-05_01-02-05_01-02-05_01-02-05 1.1.1 8.656639401606 43.61865101384
ffj-a_11-04-05_11-04-05_11-04-05_11-04-05_03-02-05_03-02-05_03-02-05_03-02-05_03-02-05_03-02-05_03-02-05 1.1.1 9.123196726152 46.25697664158
fjh_12-03-12_25-12-12_25-12-12_None_None 1.1.1 1.462960259303 1.980124161633
fjh_17-10-08_31-02-08_31-02-08_None_None 1.1.2 1.204523358 2.062385878
fjh_17-12-12_31-03-12_31-03-12_None_None 1.1.2 2.9881086114545004 1.7486319343104997
fjh_33-11-02_31-01-02_31-01-02_None_None 1.1.2 1.8506963118375 1.7569659559924995
fjh_34-11-10_31-06-10_31-06-10_None_None 1.1.2 2.387422121952 1.846928251728
fjh_36-11-11_31-07-11_31-07-11_None_None 1.1.2 1.607954886503 1.7073662630395
fmj_17-12-12_17-12-12_31-03-12_31-03-12_31-03-12_None_None_None_None 1.1.1 2.135968395918 1.96329320998
fmj_33-11-02_33-11-02_31-01-02_31-01-02_31-01-02_None_None_None_None 2.2.1 1.8703031719887495 1.90138721857
fmj_34-11-10_34-11-10_31-06-10_31-06-10_31-06-10_None_None_None_None 2.2.1 2.41825243184 2.0092691022320004
fss_12-03-12_12-03-12_12-03-12_12-03-12_06-12-12_06-12-12_06-12-12_06-12-12_06-12-12 1.1.3 2.385610501185432 0.8025498771882233
fss_12-03-12_12-03-12_12-03-12_12-03-12_10-12-12_10-12-12_10-12-12_10-12-12_10-12-12 1.1.3 2.2075242634580743 1.0208792378942229
fss_17-10-08_17-10-08_17-10-08_17-10-08_01-02-08_01-02-08_01-02-08_01-02-08_01-02-08 1.1.4 1.579220218482 0.80186958178625
fss_17-12-12_17-12-12_17-12-12_17-12-12_02-03-12_02-03-12_02-03-12_02-03-12_02-03-12 1.1.3 4.646302231701451 0.5096450897613658
fss_18-12-12_18-12-12_18-12-12_18-12-12_02-03-12_02-03-12_02-03-12_02-03-12_02-03-12 1.1.4 2.4672837385905 0.7474555323614999
fss_35-11-03_35-11-03_35-11-03_35-11-03_02-01-03_02-01-03_02-01-03_02-01-03_02-01-03 1.1.3 2.1610537897199533 1.1673105549836291
fsv_11-02-08_11-02-08_11-02-08_11-02-08_11-02-08_06-10-08_06-10-08_06-10-08_06-10-08_06-10-08_06-10-08_06-10-08_06-10-08 1.1.4 1.4771413450439996 0.7348177727632499
fsv_11-03-09_11-03-09_11-03-09_11-03-09_11-03-09_01-05-09_01-05-09_01-05-09_01-05-09_01-05-09_01-05-09_01-05-09_01-05-09 1.1.4 1.8125200890475 1.0056855512024996
fsv_12-03-09_12-03-09_12-03-09_12-03-09_12-03-09_02-05-09_02-05-09_02-05-09_02-05-09_02-05-09_02-05-09_02-05-09_02-05-09 1.1.4 1.922436315714 0.85952365292775
fsv_12-03-12_12-03-12_12-03-12_12-03-12_12-03-12_06-12-12_06-12-12_06-12-12_06-12-12_06-12-12_06-12-12_06-12-12_06-12-12 1.1.3 3.8359679027856894 0.4703227867232084
fsv_12-03-12_12-03-12_12-03-12_12-03-12_12-03-12_10-12-12_10-12-12_10-12-12_10-12-12_10-12-12_10-12-12_10-12-12_10-12-12 1.1.3 2.287077821535081 0.9914408926436892
fsv_23-10-08_23-10-08_23-10-08_23-10-08_23-10-08_01-02-08_01-02-08_01-02-08_01-02-08_01-02-08_01-02-08_01-02-08_01-02-08 1.1.3 1.4912578519934974 1.7838369692249965
fsv_23-12-12_23-12-12_23-12-12_23-12-12_23-12-12_01-03-12_01-03-12_01-03-12_01-03-12_01-03-12_01-03-12_01-03-12_01-03-12 1.1.3 2.4181131640454847 1.6930431048344985
fsv_23-12-12_23-12-12_23-12-12_23-12-12_23-12-12_03-03-12_03-03-12_03-03-12_03-03-12_03-03-12_03-03-12_03-03-12_03-03-12 1.1.3 2.2154789982964287 1.694832340311536
fsv_23-12-12_23-12-12_23-12-12_23-12-12_23-12-12_04-03-12_04-03-12_04-03-12_04-03-12_04-03-12_04-03-12_04-03-12_04-03-12 1.1.3 2.147833404221948 1.876677000993053
fsv_35-11-03_35-11-03_35-11-03_35-11-03_35-11-03_01-01-03_01-01-03_01-01-03_01-01-03_01-01-03_01-01-03_01-01-03_01-01-03 1.2.3 3.8269342101114354 1.0274311397095544
fsv_35-11-03_35-11-03_35-11-03_35-11-03_35-11-03_02-01-03_02-01-03_02-01-03_02-01-03_02-01-03_02-01-03_02-01-03_02-01-03 1.1.3 2.1562112527722785 0.8617199116625565
fsv_35-11-03_35-11-03_35-11-03_35-11-03_35-11-03_05-01-03_05-01-03_05-01-03_05-01-03_05-01-03_05-01-03_05-01-03_05-01-03 1.1.3 1.893128979084879 1.4346346110261528
fsz-a_35-11-03_35-11-03_35-11-03_35-11-03_35-11-03_01-01-03_01-01-03_01-01-03_01-01-03_01-01-03_01-01-03_01-01-03_01-01-03 1.1.3 2.976900756061948 1.2799048076035564
ftd_30-03-12_30-03-12_06-12-12_06-12-12_06-12-12_06-12-12_06-12-12_06-12-12_06-12-12 1.1.1 1.5628623079480002 2.052964330312
ftf_30-03-12_30-03-12_06-12-12_06-12-12_06-12-12_06-12-12_06-12-12_06-12-12_06-12-12 1.1.1 1.4998571573849997 2.112438221913
ftv_30-02-06_30-02-06_01-02-06_01-02-06_01-02-06_02-02-06 1.1.1 1.29438166392 1.27630370772
fuy_30-03-12_30-03-12_06-12-12_06-12-12_06-12-12_06-12-12_06-12-12 1.1.1 2.35789192111 2.04689303924
fve_30-03-12_30-03-12_06-12-12_06-12-12_06-12-12_06-12-12_06-12-12_06-12-12 1.1.1 1.6520731425080002 2.10760596648
fvk_30-03-12_30-03-12_06-12-12_06-12-12_06-12-12_06-12-12_06-12-12 1.1.1 1.596873937908 2.008730623942
fvn_30-03-12_30-03-12_06-12-12_06-12-12_06-12-12_06-12-12_06-12-12 1.1.2 1.8248571822949995 2.13709510322
fvq_30-03-12_30-03-12_06-12-12_06-12-12_06-12-12_06-12-12_06-12-12_06-12-12_06-12-12 1.1.1 1.562490593335 2.065416672265
fvu_30-03-12_30-03-12_06-12-12_06-12-12_06-12-12_06-12-12_06-12-12 1.1.2 1.5455777080590003 1.9979509814375
fvv_30-03-12_30-03-12_06-12-12_06-12-12_06-12-12_06-12-12_06-12-12_06-12-12 1.1.1 1.5353556312049996 1.893314104235
fvw_30-03-12_30-03-12_06-12-12_06-12-12_06-12-12_06-12-12_06-12-12_06-12-12 1.1.1 1.6095121394649998 1.9329014146000003
fwa_31-02-08_31-02-08_31-02-08_07-10-08_06-10-08_06-10-08 2.1.4 2.1006028535325 1.25434204284075
fwd_31-03-09_31-03-09_31-03-09_01-05-09_01-05-09_01-05-09_01-05-09_01-05-09 1.1.3 1.9973259828857528 1.4103866769512503
fwd_31-03-09_31-03-09_31-03-09_03-05-09_03-05-09_03-05-09_03-05-09_03-05-09 1.1.3 2.092690381661466 1.4855767219237055
fwe_24-02-08_24-02-08_06-10-08_06-10-08_07-10-08 1.1.3 1.9802513777881117 1.6141941622277405
fwe_31-02-08_31-02-08_06-10-08_06-10-08_07-10-08 1.1.3 2.1487255096913103 1.2626661602160345
fwe_31-02-08_31-02-08_06-10-08_07-10-08_06-10-08 1.1.3 2.283047178043069 1.3969878538717238
fwe_31-02-08_31-02-08_07-10-08_06-10-08_06-10-08 1.1.3 2.469578081692152 1.311285859875848
fwe_31-03-09_31-03-09_01-05-09_01-05-09_01-05-09 1.1.3 2.027238164430231 1.2308035178990782
fwe_31-03-12_31-03-12_06-12-12_06-12-12_07-12-12 1.1.3 2.942312353160572 0.9190784058126872
fwe_31-03-12_31-03-12_06-12-12_07-12-12_06-12-12 1.1.3 2.8141819959915413 0.9461101125
fxt-a_23-12-12_23-12-12_23-12-12_01-03-12_01-03-12_01-03-12_01-03-12_01-03-12_01-03-12 1.1.3 2.909094643181327 2.128246863792666
fxt_11-03-12_06-12-12_06-12-12_06-12-12 1.2.4 5.063778103738501 1.0562844771405002
fxt_23-12-12_02-03-12_02-03-12_02-03-12 1.1.4 2.23398555580275 1.07206200557025
fxt_35-11-03_01-01-03_02-01-03_02-01-03 1.1.3 2.565957203823661 1.2595026702263392
fxt_35-11-03_02-01-03_01-01-03_02-01-03 1.1.3 2.2283508789526785 1.3306757648066962
fxt_35-11-03_02-01-03_02-01-03_01-01-03 1.1.3 2.6129090895526788 1.2345362233357142
gee_31-03-12_17-12-12_31-03-12_None_None 1.1.1 2.419029546492 1.7929834383060004
gsi_30-02-06_None_None 2.2.2 1.089767096375 1.6255475781250004
gsi_30-03-12_06-12-12_06-12-12 1.1.1 1.523275000112 1.653745845656
gsi_30-03-12_06-12-12_07-12-12 1.1.1 1.4573484706899995 1.6710237624779998
gsi_30-03-12_07-12-12_06-12-12 1.1.1 1.4904352272500003 1.6819071980500002
gsi_30-03-12_07-12-12_07-12-12 1.1.1 1.4505502604670002 1.6167908214149995
gsi_30-03-12_08-12-12_08-12-12 1.1.1 1.520870122512 2.025508430439
gsi_30-03-12_08-12-12_09-12-12 1.1.1 1.576146525184 1.881908716352
gwg-a_13-02-05_13-02-05_13-02-05_13-02-05_13-02-05_05-04-05_05-04-05_05-04-05_05-04-05_05-04-05_05-04-05_05-04-05_05-04-05 1.1.1 10.18612308992 54.2231376896
gwg-a_13-02-06_13-02-06_13-02-06_13-02-06_13-02-06_05-02-06_05-02-06_05-02-06_05-02-06_05-02-06_05-02-06_05-02-06_05-02-06 1.1.1 10.268797176652 57.040936825790006
gwg-a_13-03-09_13-03-09_13-03-09_13-03-09_13-03-09_05-05-09_05-05-09_05-05-09_05-05-09_05-05-09_05-05-09_05-05-09_05-05-09 1.1.1 10.533930527143 56.13410970471
gwg-a_13-04-05_13-04-05_13-04-05_13-04-05_13-04-05_05-02-05_05-02-05_05-02-05_05-02-05_05-02-05_05-02-05_05-02-05_05-02-05 1.1.1 10.398255594240002 55.82095169663998
gwg-a_14-02-05_14-02-05_14-02-05_14-02-05_14-02-05_05-04-05_05-04-05_05-04-05_05-04-05_05-04-05_05-04-05_05-04-05_05-04-05 1.1.1 9.216410273567 48.71578049837999
gwg-a_14-02-06_14-02-06_14-02-06_14-02-06_14-02-06_05-02-06_05-02-06_05-02-06_05-02-06_05-02-06_05-02-06_05-02-06_05-02-06 1.1.1 9.69910219733 52.78635804169001
gwg-a_14-03-09_14-03-09_14-03-09_14-03-09_14-03-09_05-05-09_05-05-09_05-05-09_05-05-09_05-05-09_05-05-09_05-05-09_05-05-09 1.1.1 10.14473138176 55.23253093632
gwg-a_14-04-05_14-04-05_14-04-05_14-04-05_14-04-05_05-02-05_05-02-05_05-02-05_05-02-05_05-02-05_05-02-05_05-02-05_05-02-05 1.1.1 10.109016958416 53.842992096953004
gwg-a_14-05-09_14-05-09_14-05-09_14-05-09_14-05-09_05-03-09_05-03-09_05-03-09_05-03-09_05-03-09_05-03-09_05-03-09_05-03-09 1.1.1 10.4960905408 56.7325099968
gwg-a_15-02-04_15-02-04_15-02-04_15-02-04_15-02-04_05-03-04_05-03-04_05-03-04_05-03-04_05-03-04_05-03-04_05-03-04_05-03-04 1.1.1 11.281258068678005 62.66669771994601
gwg-a_15-02-05_15-02-05_15-02-05_15-02-05_15-02-05_03-04-05_03-04-05_03-04-05_03-04-05_03-04-05_03-04-05_03-04-05_03-04-05 1.1.1 10.657614106352 57.28129693776
gwg-a_15-02-05_15-02-05_15-02-05_15-02-05_15-02-05_05-04-05_05-04-05_05-04-05_05-04-05_05-04-05_05-04-05_05-04-05_05-04-05 1.1.1 12.719819064084 68.901809750862
gwg-a_15-02-06_15-02-06_15-02-06_15-02-06_15-02-06_03-02-06_03-02-06_03-02-06_03-02-06_03-02-06_03-02-06_03-02-06_03-02-06 1.1.1 10.898573896380004 60.6426577953
gwg-a_15-02-06_15-02-06_15-02-06_15-02-06_15-02-06_04-02-06_04-02-06_04-02-06_04-02-06_04-02-06_04-02-06_04-02-06_04-02-06 1.1.1 10.070479386233 54.72738981259299
gwg-a_15-02-06_15-02-06_15-02-06_15-02-06_15-02-06_05-02-06_05-02-06_05-02-06_05-02-06_05-02-06_05-02-06_05-02-06_05-02-06 1.1.1 13.718850950665 76.89262565391499
gwg-a_15-03-09_15-03-09_15-03-09_15-03-09_15-03-09_03-05-09_03-05-09_03-05-09_03-05-09_03-05-09_03-05-09_03-05-09_03-05-09 1.1.1 10.874148877940002 59.23932454053999
gwg-a_15-03-09_15-03-09_15-03-09_15-03-09_15-03-09_04-05-09_04-05-09_04-05-09_04-05-09_04-05-09_04-05-09_04-05-09_04-05-09 1.1.1 9.8020535547 53.05680010752
gwg-a_15-03-09_15-03-09_15-03-09_15-03-09_15-03-09_05-05-09_05-05-09_05-05-09_05-05-09_05-05-09_05-05-09_05-05-09_05-05-09 1.1.1 13.9583893365 76.6914232911
gwg-a_15-04-05_15-04-05_15-04-05_15-04-05_15-04-05_03-02-05_03-02-05_03-02-05_03-02-05_03-02-05_03-02-05_03-02-05_03-02-05 1.1.1 10.695703342840002 57.052761518832
gwg-a_15-04-05_15-04-05_15-04-05_15-04-05_15-04-05_04-02-05_04-02-05_04-02-05_04-02-05_04-02-05_04-02-05_04-02-05_04-02-05 1.1.1 9.463368970752 50.55012496071601
gwg-a_15-04-05_15-04-05_15-04-05_15-04-05_15-04-05_05-02-05_05-02-05_05-02-05_05-02-05_05-02-05_05-02-05_05-02-05_05-02-05 1.1.1 13.994179659471005 76.92415858017
gwg-a_15-05-09_15-05-09_15-05-09_15-05-09_15-05-09_03-03-09_03-03-09_03-03-09_03-03-09_03-03-09_03-03-09_03-03-09_03-03-09 1.1.1 10.853184880330002 58.13686490151999
[...]
utb_11-03-12_06-12-12_06-12-12 1.1.2 2.98340893755 1.428356314242
utb_11-03-12_06-12-12_07-12-12 1.1.1 2.668678646436001 1.366834649202
utb_11-03-12_07-12-12_06-12-12 1.1.1 2.54315308492 1.7605689116839998
utb_11-03-12_07-12-12_07-12-12 2.1.1 2.2716804496800007 1.20712726824
utb_11-04-05_01-02-05_02-02-05 1.1.2 2.254822715592 1.3499267573610003
utb_11-04-05_03-02-05_04-02-05 1.1.1 1.999047996539 1.3929000580769997
utb_12-03-09_02-05-09_01-05-09 1.1.2 2.0289558911835 1.232946749544
utb_14-02-05_02-04-05_01-04-05 1.2.1 1.519365080226 1.297568616524
utb_23-08-01_01-01-01_01-01-01 1.3.1 1.335549381001102 1.7899757093508817
utb_23-08-01_02-01-01_01-01-01 3.1.1 1.344437782078583 1.6662341883990557
utb_23-08-01_02-01-01_02-01-01 3.1.1 1.557993593536695 1.5020941882554784
utb_23-10-08_02-02-08_02-02-08 3.1.1 2.195992759983652 1.4542921595696865
utc_11-03-12_08-12-12_08-12-12_08-12-12 1.1.1 1.69171120085 2.25966836511
utc_17-12-12_02-03-12_02-03-12_02-03-12 1.1.1 2.775675462098 1.3080959382260002
utc_36-11-11_01-07-11_02-07-11_01-07-11 1.1.1 0.8759817006599999 1.3537899010199996
utc_36-11-11_02-07-11_01-07-11_02-07-11 1.1.1 0.913691686192 1.3405026814719998
utj_12-03-12_06-12-12_06-12-12_06-12-12 1.1.1 1.499593596124 2.3056603227460006
utj_17-12-12_02-03-12_02-03-12_02-03-12 1.1.1 1.6249972612739998 2.151788898224
utj_34-11-10_01-06-10_01-06-10_02-06-10 2.2.2 1.0384616154431248 1.7540517164243752
utk_12-03-12_06-12-12_06-12-12_06-12-12 1.1.2 1.778129742496 1.994768967452
utk_12-03-12_09-12-12_09-12-12_09-12-12 1.1.2 2.023311705303 1.8425750448525
utk_17-12-12_01-03-12_01-03-12_01-03-12 1.1.2 1.7537713149800005 2.3798929085475
utk_17-12-12_02-03-12_02-03-12_02-03-12 1.1.2 1.574177361545 1.891491853321
utk_34-11-10_02-06-10_02-06-10_01-06-10 2.2.2 1.0067365261185 1.17886362899775
utk_34-11-10_02-06-10_02-06-10_02-06-10 2.2.2 1.5107587552064998 1.43527287667275
utk_35-11-03_01-01-03_01-01-03_01-01-03 2.2.2 1.3881490044959996 1.211513277876
utk_35-11-03_02-01-03_02-01-03_01-01-03 3.3.2 2.9887103386762446 0.756819646776564
utm_12-03-12_06-12-12_06-12-12_06-12-12 2.1.1 2.5500828249285004 1.7383891054505
utm_12-03-12_07-12-12_07-12-12_07-12-12 2.1.1 2.178461388286 1.4315328043360005
utm_12-03-12_09-12-12_09-12-12_09-12-12 2.1.1 2.5406801775884995 1.2495084282419997
utm_17-12-12_01-03-12_01-03-12_01-03-12 1.1.1 2.1102032555640005 1.8491878304550005
utm_17-12-12_02-03-12_02-03-12_02-03-12 1.1.1 1.6169404480030003 1.9832155744
utm_34-11-10_01-06-10_02-06-10_02-06-10 1.1.1 1.009102533979 1.70352596592
utm_34-11-10_02-06-10_02-06-10_02-06-10 1.1.1 0.922489495352 1.5232529703160005
utm_35-11-03_01-01-03_02-01-03_02-01-03 1.3.1 2.186895327128385 0.9465833612360532
utm_35-11-03_02-01-03_01-01-03_02-01-03 3.1.1 2.2794017129558246 0.9180768408292634
utn_11-03-12_06-12-12_06-12-12_06-12-12 1.1.2 1.996649717148 2.0719577929725004
utn_11-03-12_07-12-12_07-12-12_07-12-12 1.1.2 2.141819218953 1.986057029124
utn_11-03-12_09-12-12_09-12-12_09-12-12 1.1.1 1.810114072791 1.6157422006380002
utn_12-03-12_06-12-12_06-12-12_06-12-12 1.1.2 2.787471586041 1.415188703284
utn_12-03-12_07-12-12_07-12-12_07-12-12 1.1.1 2.0791921700320004 1.1488243510560003
utn_12-03-12_08-12-12_08-12-12_08-12-12 1.1.1 1.991490243078 1.4606574779369998
utn_12-03-12_09-12-12_09-12-12_09-12-12 1.1.1 1.839445406886 1.4040343609769994
utn_17-10-08_02-02-08_02-02-08_02-02-08 1.1.2 1.424168542675 1.3661606333650005
utn_17-12-12_01-03-12_01-03-12_01-03-12 1.1.2 3.0363743032695005 2.039232294054
utn_17-12-12_02-03-12_02-03-12_02-03-12 1.1.1 2.282557175161 1.1564625818219998
utn_34-11-10_01-06-10_02-06-10_01-06-10 1.1.2 1.08194484207 1.2716275770405
utn_34-11-10_02-06-10_02-06-10_01-06-10 1.1.2 1.387663859739 1.083631794988
utn_34-11-10_02-06-10_02-06-10_02-06-10 1.1.2 1.5492825836160002 0.933942525204
utn_35-11-03_01-01-03_01-01-03_01-01-03 1.1.2 1.83389445579 1.3086629275170003
utn_35-11-03_01-01-03_01-01-03_02-01-03 1.1.2 1.4101150241399998 1.32148982848
utn_35-11-03_01-01-03_02-01-03_01-01-03 1.1.2 1.91448982876 1.30014554052
utn_35-11-03_01-01-03_02-01-03_02-01-03 1.1.2 1.3511240324064997 1.1809234872135
utn_35-11-03_02-01-03_01-01-03_01-01-03 1.1.2 1.84256885846 1.23054460152
utn_35-11-03_02-01-03_01-01-03_02-01-03 1.1.2 1.3041721578705 1.202303358654
utn_35-11-03_02-01-03_02-01-03_01-01-03 1.1.2 1.7384769973284997 1.2899189102435
utn_35-11-03_02-01-03_02-01-03_02-01-03 1.1.2 1.1373631970749998 1.136980890118
utn_36-11-11_02-07-11_01-07-11_01-07-11 1.1.2 1.371639058929 1.0043583299365002
uto_12-03-12_06-12-12_06-12-12_06-12-12 1.1.1 1.7795364907099998 2.205077825445
uto_17-12-12_01-03-12_01-03-12_01-03-12 1.1.1 1.7963538924420002 2.295516321729
uto_17-12-12_02-03-12_02-03-12_02-03-12 1.1.1 1.9051264611579997 1.5301747666229997
uto_33-11-02_01-01-02_01-01-02_01-01-02 2.2.1 1.4081160368519996 1.6791392261520002
uto_33-11-02_01-01-02_02-01-02_01-01-02 2.2.1 1.0680699229919997 1.7464569743339995
uto_33-11-02_01-01-02_02-01-02_02-01-02 2.2.1 0.9713707926905 1.5364893467965002
uto_33-11-02_02-01-02_01-01-02_01-01-02 2.2.1 1.3388148051209996 1.58583986028
uto_33-11-02_02-01-02_01-01-02_02-01-02 1.2.1 1.2175842706205 1.252171402044
uto_33-11-02_02-01-02_02-01-02_01-01-02 2.2.1 1.028234381641 1.5558346914910004
uto_33-11-02_02-01-02_02-01-02_02-01-02 2.2.1 0.94725793722 1.4518768056300002
uto_34-11-10_01-06-10_01-06-10_01-06-10 2.2.1 1.095072720954 2.169008180776
uto_34-11-10_01-06-10_01-06-10_02-06-10 2.2.1 1.107966300297 1.91086524164325
uto_34-11-10_01-06-10_02-06-10_01-06-10 2.2.1 0.9853915365435 1.7913719663639998
uto_34-11-10_01-06-10_02-06-10_02-06-10 1.1.1 0.926292243969 1.6207156759099997
uto_34-11-10_02-06-10_01-06-10_01-06-10 2.2.1 1.07270037664725 1.8636157517047505
uto_34-11-10_02-06-10_01-06-10_02-06-10 2.2.1 1.14899277388875 1.6278137007679996
uto_34-11-10_02-06-10_02-06-10_01-06-10 2.2.1 0.971246401403 1.51868156857625
uto_34-11-10_02-06-10_02-06-10_02-06-10 1.1.1 1.117191002836 1.48889388076
utp_17-10-08_01-02-08_01-02-08_01-02-08 1.1.9 1.3018948577247238 0.8348673186144139
utp_17-12-12_02-03-12_02-03-12_02-03-12 1.1.6 4.87499173227511 0.5776115358109999
utp_34-11-10_02-06-10_02-06-10_01-06-10 1.2.3 1.0457757101741658 1.6853864909060567
utp_34-11-10_02-06-10_02-06-10_02-06-10 1.2.3 1.0224431266382374 1.5242940708212376
utp_35-11-03_01-01-03_02-01-03_02-01-03 1.1.4 1.816031432946 1.245901527866
utq_11-03-12_07-12-12_07-12-12_07-12-12 1.2.1 1.595404031292 2.070532175553
utq_12-03-12_06-12-12_06-12-12_06-12-12 1.2.1 1.7352239219690002 1.9930105321845
utq_12-03-12_07-12-12_07-12-12_07-12-12 1.2.1 1.733838093582 1.9018568675200005
utq_12-03-12_09-12-12_09-12-12_09-12-12 1.3.1 2.449464270608424 1.3954278337707555
utq_17-12-12_02-03-12_02-03-12_02-03-12 1.2.1 1.674577650634 1.8124731085415
utq_23-10-08_01-02-08_01-02-08_01-02-08 3.1.1 1.4419971010890051 1.6204873983179942
utq_33-11-02_01-01-02_01-01-02_02-01-02 1.2.1 1.3079790300599998 1.679363749476
utq_33-11-02_01-01-02_02-01-02_01-01-02 1.2.1 1.307301320718 1.7423907182820002
utq_35-11-03_01-01-03_01-01-03_01-01-03 2.2.1 2.4074410504620003 1.1696921720145
utq_35-11-03_01-01-03_01-01-03_02-01-03 2.2.1 2.34856768499 1.1813599379600002
utq_35-11-03_01-01-03_02-01-03_01-01-03 2.2.1 2.4197926458999994 0.99900547778
utq_35-11-03_01-01-03_02-01-03_02-01-03 2.2.1 2.13798714405 0.9662863464775
utq_35-11-03_02-01-03_01-01-03_01-01-03 2.2.1 2.3868482014400003 1.01454968749
utq_35-11-03_02-01-03_01-01-03_02-01-03 2.2.1 2.24719217366275 1.100853772603
utq_35-11-03_02-01-03_02-01-03_01-01-03 2.2.1 2.1761355421104995 0.9172384061139998
utq_35-11-03_04-01-03_04-01-03_03-01-03 3.1.1 1.4744760053009884 1.0838624740206444
var_11-03-12_11-03-12_11-03-12_06-12-12_06-12-12_06-12-12_06-12-12_06-12-12 1.1.4 2.4373005307285003 0.8038644237817502
var_12-03-12_12-03-12_12-03-12_06-12-12_06-12-12_06-12-12_06-12-12_06-12-12 1.1.3 2.5070128949369885 0.7956567622690355
var_18-12-12_18-12-12_18-12-12_02-03-12_02-03-12_02-03-12_02-03-12_02-03-12 1.1.4 2.767961188339501 0.7906004663954999
var_23-12-12_23-12-12_23-12-12_01-03-12_01-03-12_01-03-12_01-03-12_01-03-12 1.1.3 2.774662015183204 1.7279410826417958
var_35-11-03_35-11-03_35-11-03_01-01-03_01-01-03_01-01-03_01-01-03_01-01-03 1.1.3 2.5998008152808207 1.102484023877449
vbb_31-03-12_06-12-12_06-12-12_06-12-12_06-12-12 6.1.1 1.6059887785323257 0.9258595482562022
wfa_31-03-12_07-12-12_06-12-12_06-12-12 1.1.2 1.60844325551 1.4045504734299996
wiw_12-03-12_06-12-12_06-12-12_06-12-12 1.1.1 1.9538169625000004 2.110747540928
wiw_12-03-12_07-12-12_07-12-12_07-12-12 1.1.1 1.9012857378520005 1.97324788954
wiw_17-12-12_01-03-12_01-03-12_01-03-12 1.1.1 2.761033258152 2.61803991348
wiw_17-12-12_02-03-12_02-03-12_02-03-12 1.1.1 2.214039831085 1.62513498425
wix_11-03-12_06-12-12_06-12-12_06-12-12 2.1.1 2.048169377122 1.9104331407755
wix_12-03-12_06-12-12_06-12-12_06-12-12 1.1.2 1.7996998814575 2.4421148990700003
wix_17-12-12_02-03-12_02-03-12_02-03-12 1.1.2 1.6667274219824997 2.2476443172
wix_34-11-10_02-06-10_02-06-10_02-06-10 2.2.2 1.2928041266125 1.2664274518145
wix_34-11-10_04-06-10_03-06-10_03-06-10 2.2.1 1.1742188184930002 1.9725867154920005
wix_35-11-03_01-01-03_02-01-03_01-01-03 1.3.2 2.2086696992069976 1.1577471422669994
wix_35-11-03_02-01-03_02-01-03_01-01-03 1.3.2 1.914593120699024 1.134670323475535
wix_35-11-03_04-01-03_04-01-03_03-01-03 1.3.1 1.7142592680850817 1.6416567644646225
wiy_12-03-12_06-12-12_06-12-12_06-12-12 1.1.6 2.8778942658794047 0.7868411300442143
wiy_35-11-03_01-01-03_01-01-03_01-01-03 1.1.4 2.744434309288 1.5917996069520002
wiy_35-11-03_03-01-03_04-01-03_04-01-03 2.2.1 1.6871083175695 1.2451930420685
wiz_11-03-12_06-12-12_06-12-12_06-12-12 2.2.1 1.5834410071590002 2.0865462674017494
wiz_11-03-12_07-12-12_07-12-12_07-12-12 2.2.1 1.5431268669437503 1.9936609814687496
wiz_12-03-12_06-12-12_06-12-12_06-12-12 2.2.1 1.7926661403887505 1.806264706455
wiz_12-03-12_07-12-12_07-12-12_07-12-12 2.2.1 1.908282058155 1.77763648515
wiz_12-03-12_09-12-12_09-12-12_09-12-12 2.2.1 1.8584840432305 1.9594149055277497
wiz_17-10-08_02-02-08_02-02-08_02-02-08 2.2.1 1.1095871874074996 1.5379532865675
wiz_17-12-12_01-03-12_01-03-12_01-03-12 2.2.1 3.012848742373249 1.9125359840785
wiz_17-12-12_02-03-12_02-03-12_02-03-12 2.2.1 1.66590108216 1.7353136272500005
wiz_33-11-02_01-01-02_01-01-02_01-01-02 2.2.1 2.6210953774079995 1.7420433737919998
wiz_33-11-02_01-01-02_01-01-02_02-01-02 3.3.1 1.2036117187700035 1.2931699781723258
wiz_33-11-02_01-01-02_02-01-02_01-01-02 3.3.1 1.0654594586008348 1.285940933948333
wiz_33-11-02_01-01-02_02-01-02_02-01-02 3.3.1 1.0466894185108977 1.132495081332881
wiz_33-11-02_02-01-02_01-01-02_01-01-02 2.2.1 2.5861388483565 1.6066229463234998
wiz_33-11-02_02-01-02_01-01-02_02-01-02 3.3.1 1.294726939707458 1.2068367944995928
wiz_33-11-02_02-01-02_02-01-02_01-01-02 3.3.1 1.5257420895660174 1.1825195946041025
wiz_33-11-02_02-01-02_02-01-02_02-01-02 3.3.1 1.294077006682795 1.0440152080212672
wiz_34-11-10_01-06-10_01-06-10_01-06-10 3.3.1 1.2222275901130226 1.6678562935531929
wiz_34-11-10_01-06-10_01-06-10_02-06-10 3.3.1 1.12445141420508 1.4450279639061387
wiz_34-11-10_01-06-10_02-06-10_01-06-10 3.3.1 1.1613786938233102 1.4945345094660114
wiz_34-11-10_01-06-10_02-06-10_02-06-10 3.3.1 1.1258694283709754 1.3000778929669108
wiz_34-11-10_02-06-10_01-06-10_01-06-10 2.2.1 1.9164575720532504 1.8461539831785
wiz_34-11-10_02-06-10_01-06-10_02-06-10 3.3.1 1.3256658309359353 1.3025314120137526
wiz_34-11-10_02-06-10_02-06-10_01-06-10 2.2.1 1.873089893875 1.573395510855
wiz_34-11-10_02-06-10_02-06-10_02-06-10 3.3.1 1.7004473061393384 1.246645029010763
wiz_36-11-11_01-07-11_01-07-11_02-07-11 2.2.1 0.96385447340325 1.3592819496712505
wiz_36-11-11_01-07-11_02-07-11_01-07-11 2.2.1 1.00229881137375 1.4462393807949996
wiz_36-11-11_01-07-11_02-07-11_02-07-11 2.2.1 0.9279187193680002 1.159503203844
wiz_36-11-11_02-07-11_01-07-11_01-07-11 2.2.1 0.8952038698845 1.31351488065875
wiz_36-11-11_02-07-11_01-07-11_02-07-11 2.2.1 0.923176374976 1.19349000532
wiz_36-11-11_02-07-11_02-07-11_01-07-11 2.2.1 0.870220195932 1.2448654029
wiz_36-11-11_02-07-11_02-07-11_02-07-11 2.2.1 0.93677924580675 1.109947792359
wje_30-03-12_06-12-12_06-12-12_06-12-12_06-12-12 1.1.1 1.5701106875520003 1.6682426055240005
wje_30-03-12_07-12-12_07-12-12_07-12-12_07-12-12 1.1.1 1.5421177250570002 1.5867188511980004
wje_30-03-12_09-12-12_09-12-12_09-12-12_09-12-12 1.1.1 1.7373666145980002 1.567985468328
wut_30-03-12_30-03-12_06-12-12_06-12-12_06-12-12 1.1.1 2.532695591455 1.5522685203
wut_30-03-12_30-03-12_06-12-12_06-12-12_07-12-12 1.1.1 2.388526799356 1.493813172208
wut_30-03-12_30-03-12_06-12-12_07-12-12_06-12-12 1.1.1 1.8416140929370004 1.554263966652
wut_30-03-12_30-03-12_06-12-12_07-12-12_07-12-12 1.1.1 1.963362356589 1.5148102194000002
wut_30-03-12_30-03-12_07-12-12_06-12-12_06-12-12 1.1.1 2.4446204773500004 1.632320269613
wut_30-03-12_30-03-12_07-12-12_06-12-12_07-12-12 1.1.1 2.387509218021 1.445802198294
wut_30-03-12_30-03-12_07-12-12_07-12-12_06-12-12 1.1.1 1.84354605684 1.4702114611
wut_30-03-12_30-03-12_07-12-12_07-12-12_07-12-12 1.1.1 1.861894283536 1.5642831328139997
wut_30-03-12_30-03-12_08-12-12_08-12-12_08-12-12 1.1.1 1.6309168219059995 1.923962528344
wut_30-03-12_30-03-12_08-12-12_08-12-12_09-12-12 1.1.1 1.7765253713430005 1.8796142158390003
wut_30-03-12_30-03-12_08-12-12_09-12-12_09-12-12 1.1.1 1.707648230034 1.646168653782
wut_30-03-12_30-03-12_09-12-12_08-12-12_08-12-12 1.1.1 1.7651294441040006 1.7729200532520002
wut_30-03-12_30-03-12_09-12-12_08-12-12_09-12-12 1.1.1 1.925476728651 1.7007582775229997
wut_30-03-12_30-03-12_09-12-12_09-12-12_08-12-12 1.1.1 1.6437519787410002 1.5921475768230002
wut_30-03-12_30-03-12_09-12-12_09-12-12_09-12-12 1.1.1 1.658967340496 1.50749220118
xca_30-03-12_12-03-12_06-12-12_06-12-12_06-12-12_06-12-12 1.2.1 1.4398868839425003 2.109917441695001
yac_31-01-02_31-01-02_31-01-02_33-11-02_33-11-02_33-11-02_33-11-02_33-11-02_None_None_None_None_None_None_None 2.2.1 1.926732670929 1.875085332021
yac_31-03-12_31-03-12_31-03-12_17-12-12_17-12-12_17-12-12_17-12-12_17-12-12_None_None_None_None_None_None_None 1.1.1 1.810132686997 1.982807873081
yac_31-06-10_31-06-10_31-06-10_34-11-10_34-11-10_34-11-10_34-11-10_34-11-10_None_None_None_None_None_None_None 2.2.1 2.21713283218 1.9618193284200005
yao_31-01-02_31-01-02_33-11-02_33-11-02_33-11-02_None_None_None_None 2.2.1 1.9735978498587496 1.84017555761
yao_31-03-12_31-03-12_17-12-12_17-12-12_17-12-12_None_None_None_None 1.1.1 1.740944340416 1.969206743745
yao_31-06-10_31-06-10_34-11-10_34-11-10_34-11-10_None_None_None_None 2.2.1 2.272771907056 1.945199864496
yav-d-a_15-02-05_15-02-05_15-02-05_05-04-05_05-04-05_05-04-05_05-04-05 1.1.1 8.946024092927999 47.456313384960005
yav-d-a_15-02-06_15-02-06_15-02-06_05-02-06_05-02-06_05-02-06_05-02-06 1.1.1 8.932178408958 48.63381543140399
yav-d-a_15-03-09_15-03-09_15-03-09_05-05-09_05-05-09_05-05-09_05-05-09 1.1.1 9.717310053934 51.850844102554
yav-d-a_15-04-05_15-04-05_15-04-05_05-02-05_05-02-05_05-02-05_05-02-05 1.1.1 9.29205971136 49.409677109376005
yav-d-a_15-05-09_15-05-09_15-05-09_05-03-09_05-03-09_05-03-09_05-03-09 1.1.1 9.550464007154 51.78606857850998
yct-z_11-04-05_30-04-05_11-04-05_01-02-05_01-02-05_01-02-05_01-02-05_01-02-05_01-02-05 2.1.1 2.7356402859225004 1.1285202715199998
yug_30-03-12_30-03-12_06-12-12_06-12-12_06-12-12_06-12-12_06-12-12_06-12-12 1.1.2 1.5662077142440003 2.0652308200640004
zni_30-02-05_01-04-05_01-04-05_01-04-05 1.1.1 1.6001527960879998 2.498474479952
zni_30-02-08_06-10-08_06-10-08_06-10-08 1.1.1 1.3937526519999996 1.298280595338
zni_30-02-08_06-10-08_06-10-08_07-10-08 1.1.1 1.306447996896 1.187739619668
zni_30-02-08_06-10-08_07-10-08_06-10-08 1.1.1 1.135918336521 1.2886354953869996
zni_30-02-08_07-10-08_06-10-08_06-10-08 1.1.1 1.2257917087739998 1.2305218862609997
zni_30-02-08_07-10-08_07-10-08_06-10-08 1.1.1 1.030992093936 1.19364224616
zni_30-02-08_08-10-08_08-10-08_08-10-08 1.1.1 1.192663929998 1.3420272578239996
zni_30-02-08_08-10-08_09-10-08_08-10-08 1.1.1 2.0834343998160003 1.669570264208
zni_30-02-08_09-10-08_08-10-08_09-10-08 1.1.1 1.587018549431 1.430953898087
zni_30-02-08_09-10-08_09-10-08_08-10-08 1.1.1 1.33047800382 1.775129624725
zni_30-03-09_02-05-09_02-05-09_02-05-09 1.1.1 1.846881663768 1.415321659242
zni_30-03-12_06-12-12_06-12-12_06-12-12 1.1.1 3.667680435848 0.969052690408
zni_30-03-12_06-12-12_06-12-12_07-12-12 1.1.1 2.740970958144 0.990827548992
zni_30-03-12_06-12-12_07-12-12_06-12-12 1.1.1 3.3311771252880003 1.031881614414
zni_30-03-12_07-12-12_06-12-12_06-12-12 1.1.1 3.698346387138 0.988909211916
zni_30-03-12_07-12-12_06-12-12_07-12-12 1.1.1 2.828085840097 1.0025105316169998
zni_30-03-12_07-12-12_07-12-12_06-12-12 1.1.1 3.256562356896 1.0173770545919998
zni_30-03-12_07-12-12_07-12-12_07-12-12 1.1.1 2.640082569611 1.004032169399
zni_30-03-12_08-12-12_08-12-12_09-12-12 1.1.1 1.7081357020439998 1.68641923702
zni_30-03-12_09-12-12_08-12-12_08-12-12 1.1.1 2.582444906958 1.331872383804
znp_30-03-12_30-03-12_30-03-12_30-03-12_06-12-12_06-12-12_06-12-12_06-12-12_06-12-12_06-12-12 2.1.1 1.4470740782765 1.8760295075935
zra-d_30-03-12_30-03-12_30-03-12_30-03-12_30-03-12_06-12-12_06-12-12_06-12-12_06-12-12_06-12-12_06-12-12_06-12-12_06-12-12 1.1.1 1.4429852496549995 1.98494106985
zsn_30-03-12_30-03-12_30-03-12_06-12-12_06-12-12_06-12-12_06-12-12_06-12-12 1.1.1 1.3983798311009996 1.988658186175
zxd_11-03-12_11-03-12_06-12-12_06-12-12_06-12-12 1.1.2 5.988372018966 0.7278466385970002
zxd_11-03-12_12-03-12_06-12-12_06-12-12_06-12-12 1.1.2 4.704344319558 0.6684409196400002
zxd_11-03-12_12-03-12_07-12-12_07-12-12_07-12-12 1.1.2 3.995111362437001 0.7017407441460002
zxd_12-03-12_11-03-12_06-12-12_06-12-12_06-12-12 1.1.2 5.763670143136501 0.604343188218
zxd_12-03-12_11-03-12_07-12-12_07-12-12_07-12-12 1.1.2 4.833851686049 0.6387895586569998
zxd_12-03-12_12-03-12_06-12-12_06-12-12_06-12-12 1.1.2 4.4108590218615005 0.9094627197045
zxd_12-03-12_12-03-12_07-12-12_07-12-12_07-12-12 1.1.2 4.076998570038001 0.8252088406365
zxd_17-08-01_17-08-01_01-01-01_01-01-01_01-01-01 1.1.3 2.447039695278665 0.6482326655976245
zxd_17-12-12_17-12-12_02-03-12_02-03-12_02-03-12 1.1.2 6.414049698364 0.480516606493
zxd_23-10-08_23-10-08_02-02-08_02-02-08_02-02-08 1.1.2 1.4103373363875005 1.7608694768370003
zxd_33-11-02_33-11-02_01-01-02_02-01-02_02-01-02 1.1.1 1.0056295013099998 1.477443643278
zxd_34-11-10_34-11-10_01-06-10_02-06-10_02-06-10 1.1.1 1.02582839305 1.60852942821
zxd_34-11-10_34-11-10_02-06-10_01-06-10_01-06-10 1.1.1 1.077872169906 1.879147513143
zxd_34-11-10_34-11-10_02-06-10_02-06-10_02-06-10 1.1.1 1.1272557861040002 1.5222117850530004
zxd_35-11-03_35-11-03_01-01-03_01-01-03_01-01-03 1.1.2 2.323279321896 1.552662671446
zxd_35-11-03_35-11-03_01-01-03_01-01-03_02-01-03 1.1.2 1.8637917104125 1.434770174425
zxd_35-11-03_35-11-03_01-01-03_02-01-03_01-01-03 1.1.2 2.25021874248 1.4546964949619998
zxd_35-11-03_35-11-03_01-01-03_02-01-03_02-01-03 1.1.2 1.8537387708905004 1.370997141904
zxd_35-11-03_35-11-03_02-01-03_01-01-03_01-01-03 1.1.2 2.3576444395080003 1.475673110358
zxd_35-11-03_35-11-03_02-01-03_01-01-03_02-01-03 1.1.2 1.9255087247760003 1.299500077577
zxd_35-11-03_35-11-03_02-01-03_02-01-03_01-01-03 1.1.2 2.2179326908375 1.3974767212624997
zxd_35-11-03_35-11-03_02-01-03_02-01-03_02-01-03 1.1.2 1.7570827766699997 1.3018826259400005
zxd_35-11-03_35-11-03_03-01-03_03-01-03_04-01-03 1.1.2 1.7789376690659997 1.6086900308239998
zxd_35-11-03_35-11-03_03-01-03_04-01-03_03-01-03 1.1.2 1.7011410330250003 1.7639412889825
zxd_35-11-03_35-11-03_03-01-03_04-01-03_04-01-03 1.1.2 1.7874507666145 1.7017099941635
zxd_35-11-03_35-11-03_04-01-03_03-01-03_04-01-03 1.1.2 1.8181042033974997 1.7552424453569997
zxd_35-11-03_35-11-03_04-01-03_04-01-03_03-01-03 1.1.2 1.7997277470060005 1.734123501062
zxd_35-11-03_35-11-03_04-01-03_04-01-03_04-01-03 1.1.2 1.9202565147300004 1.66549150314
zxd_36-11-11_36-11-11_02-07-11_02-07-11_01-07-11 1.1.2 1.314000477323 0.656576093898
