data_n2_ads
_audit_aif_version 63df4e8
_exptl_method GCMC
_exptl_adsorptive n2
_exptl_temperature 298
_adsorp_pressure 1000000
_simltn_code RASPA 2.0.41
_simltn_date 2023-06-24T12:55:30.508663808
_simltn_forcefield_adsorptive uff
_simltn_forcefield_adsorbent mm3
_units_temperature K
_units_pressure Pa
_units_loading mol/kg
_units_enthalpy kJ/mol

loop_
_adsnt_material_id
_simltn_size
_adsorp_amount_absolute
_adsorp_enthalpy
abr_30-03-12_30-03-12_30-03-12_06-12-12_06-12-12_06-12-12 1.1.1 2.169097719086 -4.780924511616618
abr_30-03-12_30-03-12_30-03-12_06-12-12_06-12-12_07-12-12 1.1.1 2.334524786484 -5.536425180799862
acs-f_11-03-12_07-12-12_07-12-12_07-12-12 2.2.1 1.5735426721437502 -7.738575724442627
acs-f_17-12-12_04-03-12_04-03-12_04-03-12 2.2.1 1.9148883260069995 -5.886908320212158
acs-f_23-12-12_01-03-12_01-03-12_01-03-12 2.2.1 2.337691325904 -5.802443423164369
acs-f_34-11-10_03-06-10_03-06-10_03-06-10 2.2.1 2.05313758914175 -6.637136839579766
acs-f_34-11-10_04-06-10_04-06-10_03-06-10 2.2.1 2.0134766854125 -7.252748048621641
acs-g_11-03-12_06-12-12_06-12-12_06-12-12 1.1.7 1.2028263062307007 -7.039006882910576
afi_30-03-12_06-12-12_06-12-12_06-12-12_06-12-12 1.1.1 2.49790336656 -5.282971466711746
afw_30-03-12_06-12-12_06-12-12 2.1.1 2.31749923531 -5.3012771096858256
aht_30-03-12_30-03-12_06-12-12_06-12-12_06-12-12_06-12-12_06-12-12_06-12-12 1.1.1 2.352192336844 -5.561256970610616
ana-b_30-03-09_30-05-09_None_None_None_None 1.1.1 1.92283040246 -6.15697270536995
ana-b_30-03-12_30-03-12_06-12-12_06-12-12_06-12-12_06-12-12 1.1.1 2.287514484894 -5.255937626189779
ana-b_30-05-09_30-03-09_None_None_None_None 1.1.1 1.9636760983840005 -6.436812035529109
ana_30-03-12_06-12-12 1.1.1 2.356281169929 -5.257578851964476
apd_30-03-12_30-03-12_06-12-12_06-12-12_06-12-12_06-12-12_06-12-12_06-12-12_06-12-12 1.1.1 2.4064622622559995 -4.8972898204744375
asn_11-02-04_11-02-04_11-02-04_11-02-04_30-03-04_30-03-04_None_None_None_None_None_None_None_None 2.2.2 2.189384614940625 -7.019336767738902
asn_11-02-05_11-02-05_11-02-05_11-02-05_30-04-05_30-04-05_None_None_None_None_None_None_None_None 1.1.1 2.404784390865 -5.340601912884608
asn_11-03-09_11-03-09_11-03-09_11-03-09_30-05-09_30-05-09_None_None_None_None_None_None_None_None 1.1.1 2.557837004408 -5.495088316075997
asn_11-04-05_11-04-05_11-04-05_11-04-05_30-02-05_30-02-05_None_None_None_None_None_None_None_None 1.1.1 2.326738649985 -5.405257077600261
asn_11-05-09_11-05-09_11-05-09_11-05-09_30-03-09_30-03-09_None_None_None_None_None_None_None_None 1.1.1 2.526703818576 -5.211656156123841
asn_12-02-05_12-02-05_12-02-05_12-02-05_30-04-05_30-04-05_None_None_None_None_None_None_None_None 1.1.1 2.278045673928 -5.012406815065034
asn_12-04-05_12-04-05_12-04-05_12-04-05_30-02-05_30-02-05_None_None_None_None_None_None_None_None 1.1.1 2.039544699183 -5.579780601711375
asn_17-08-01_17-08-01_17-08-01_17-08-01_30-01-01_30-01-01_None_None_None_None_None_None_None_None 2.2.2 1.851146944425 -7.973719589960813
asn_17-10-08_17-10-08_17-10-08_17-10-08_30-02-08_30-02-08_None_None_None_None_None_None_None_None 2.2.2 2.11484400973625 -8.370746264878848
asn_17-12-12_17-12-12_17-12-12_17-12-12_28-03-12_28-03-12_None_None_None_None_None_None_None_None 1.1.1 2.18383882959 -5.889361310594304
asn_17-12-12_17-12-12_17-12-12_17-12-12_29-03-12_29-03-12_None_None_None_None_None_None_None_None 1.1.1 2.2942278469129995 -5.191816245720644
asn_17-12-12_17-12-12_17-12-12_17-12-12_30-03-12_30-03-12_None_None_None_None_None_None_None_None 2.2.2 1.9073487834015 -8.159085723045974
asn_18-12-12_18-12-12_18-12-12_18-12-12_30-03-12_30-03-12_None_None_None_None_None_None_None_None 1.1.1 2.139103489051 -5.992006055904049
asn_23-12-12_23-12-12_23-12-12_23-12-12_30-03-12_30-03-12_None_None_None_None_None_None_None_None 1.1.1 2.18830182928 -6.536001649281655
asn_33-11-02_33-11-02_33-11-02_33-11-02_28-01-02_28-01-02_None_None_None_None_None_None_None_None 1.1.2 2.105777220745 -6.6707889150461925
asn_34-11-10_34-11-10_34-11-10_34-11-10_28-06-10_28-06-10_None_None_None_None_None_None_None_None 1.1.2 2.2613898374550003 -7.075246125476293
asn_34-11-10_34-11-10_34-11-10_34-11-10_29-06-10_29-06-10_None_None_None_None_None_None_None_None 1.1.2 2.332743404706 -7.05994908640629
asn_35-11-03_35-11-03_35-11-03_35-11-03_30-01-03_30-01-03_None_None_None_None_None_None_None_None 2.2.2 1.1167822716049998 -11.069062112847543
atn_30-03-12_06-12-12_06-12-12_06-12-12 1.1.2 2.347917652076 -4.938322786790373
ato_30-03-12_06-12-12_06-12-12_06-12-12_06-12-12 1.1.2 2.4024973335825 -5.17680424504193
atv_30-03-12_30-03-12_06-12-12_06-12-12_06-12-12_06-12-12_06-12-12_06-12-12 1.1.1 2.348475218739 -5.273516165449906
baa_30-02-06_30-02-06_None_None 1.2.2 1.8986395710675 -6.466677176201044
bac_30-03-12_30-03-12_06-12-12_06-12-12_06-12-12_06-12-12 1.1.1 2.2510867251449995 -5.216168540608607
baf_30-03-12_30-03-12_06-12-12_06-12-12_06-12-12_06-12-12_06-12-12 1.1.2 2.312790885968 -5.18851419799072
bay_30-03-12_30-03-12_06-12-12_06-12-12_06-12-12_06-12-12 1.1.1 2.290488177328 -5.2733067263348055
bba_30-03-12_30-03-12_06-12-12_06-12-12_06-12-12 1.1.2 2.273389433018 -4.893665143899257
bbb_30-03-12_30-03-12_06-12-12_06-12-12_06-12-12_06-12-12 1.1.1 2.308578151855 -5.153314220799011
bbc_30-03-12_30-03-12_06-12-12_06-12-12_06-12-12_06-12-12 1.1.1 2.395310906862 -5.140763474021703
bbg_30-03-12_30-03-12_06-12-12_06-12-12_06-12-12 2.2.1 1.9604080885770003 -6.219981131387129
bbg_30-03-12_30-03-12_06-12-12_06-12-12_07-12-12 2.2.1 1.9355490339757495 -5.769554435921046
bbg_30-03-12_30-03-12_06-12-12_07-12-12_06-12-12 2.2.1 1.9640667568035 -6.048283492472918
bbg_30-03-12_30-03-12_07-12-12_06-12-12_06-12-12 2.2.1 1.890029540142 -6.253218445022767
bbg_30-03-12_30-03-12_07-12-12_06-12-12_07-12-12 2.2.1 1.994729117589 -6.220893373358717
bbg_30-03-12_30-03-12_07-12-12_07-12-12_06-12-12 2.2.1 1.886312467923 -6.096986389162594
bbg_30-03-12_30-03-12_07-12-12_07-12-12_07-12-12 2.2.1 1.8908174378235003 -6.589339385626633
bbg_30-03-12_30-03-12_08-12-12_08-12-12_08-12-12 2.2.1 2.4513211515585 -5.675989521444257
bbg_30-03-12_30-03-12_09-12-12_09-12-12_08-12-12 2.2.1 2.1470014309782504 -6.707601356743384
bbg_30-03-12_30-03-12_09-12-12_09-12-12_09-12-12 2.2.1 2.0979064843875 -7.391298798604938
bbh_30-03-12_30-03-12_06-12-12_06-12-12_06-12-12 1.1.2 2.1581587717630004 -5.329356837487774
bbh_30-03-12_30-03-12_06-12-12_06-12-12_07-12-12 1.1.2 2.130785751068 -5.342145387639382
bbh_30-03-12_30-03-12_06-12-12_07-12-12_06-12-12 1.1.2 2.1285920800819995 -5.315544586586436
bbh_30-03-12_30-03-12_06-12-12_07-12-12_07-12-12 1.1.2 2.1100519777155 -5.398264727014419
bbh_30-03-12_30-03-12_07-12-12_06-12-12_06-12-12 1.1.2 2.11861718288 -5.262011165940664
bbh_30-03-12_30-03-12_07-12-12_06-12-12_07-12-12 1.1.2 2.0750123328480004 -5.704757141844768
bbh_30-03-12_30-03-12_07-12-12_07-12-12_07-12-12 1.1.2 2.08138588658 -6.097716535664816
bbi_30-03-12_30-03-12_06-12-12_06-12-12_06-12-12_06-12-12 1.1.1 2.248113029904 -5.4295172384657135
bbi_30-03-12_30-03-12_07-12-12_07-12-12_07-12-12_07-12-12 1.1.1 2.1178777170590006 -5.899514730784785
bbj_30-03-12_30-03-12_06-12-12_06-12-12_06-12-12_06-12-12 1.1.1 2.307586919584 -5.511557270801371
bbl_30-02-06_30-02-06_None_None_None_None_None 1.2.3 1.8656950014406064 -6.111364367147852
bbl_30-03-12_30-03-12_06-12-12_06-12-12_06-12-12_06-12-12_06-12-12 1.2.2 2.0380958569715 -5.651660374191958
bbl_30-03-12_30-03-12_07-12-12_07-12-12_07-12-12_07-12-12_07-12-12 1.2.2 2.017187295922501 -6.070618439076203
bbm_30-03-12_30-03-12_06-12-12_06-12-12_06-12-12_06-12-12 1.1.1 2.270415738534 -5.125131954959575
bbm_30-03-12_30-03-12_07-12-12_07-12-12_07-12-12_07-12-12 1.1.1 2.1516664489840003 -6.138743787857679
bcm_30-03-12_30-03-12_06-12-12_06-12-12_06-12-12 2.2.1 1.983454220828 -5.294625870039764
bcm_30-03-12_30-03-12_06-12-12_06-12-12_07-12-12 2.2.1 1.9889283613200004 -6.340975249303146
bcm_30-03-12_30-03-12_06-12-12_07-12-12_06-12-12 2.2.1 2.0254895444325003 -5.663665544761464
bcm_30-03-12_30-03-12_06-12-12_07-12-12_07-12-12 2.2.1 2.005736417958 -5.720477351297644
bcm_30-03-12_30-03-12_07-12-12_06-12-12_06-12-12 2.2.1 1.9360258342605 -5.886298583640661
bcm_30-03-12_30-03-12_07-12-12_06-12-12_07-12-12 2.2.1 1.893174281193 -6.715070434194997
bcm_30-03-12_30-03-12_07-12-12_07-12-12_06-12-12 2.2.1 1.9062117264060003 -6.023144262360402
bcm_30-03-12_30-03-12_07-12-12_07-12-12_07-12-12 2.2.1 1.95501602845725 -6.259193711574915
bcm_30-03-12_30-03-12_08-12-12_08-12-12_08-12-12 2.2.1 2.4636859492965 -5.814885074150475
bcm_30-03-12_30-03-12_09-12-12_08-12-12_08-12-12 2.2.1 2.299055872948 -6.571630192272319
bcm_30-03-12_30-03-12_09-12-12_09-12-12_08-12-12 2.2.1 2.2034904571295 -6.723053368938849
bcm_30-03-12_30-03-12_09-12-12_09-12-12_09-12-12 2.2.1 2.08056508130625 -6.606779429401876
bcn_30-03-12_30-03-12_06-12-12_06-12-12_06-12-12_06-12-12 2.2.1 2.1559285009 -5.660611970374938
bcn_30-03-12_30-03-12_07-12-12_07-12-12_07-12-12_07-12-12 2.2.1 1.984074337902 -5.94232149189894
bco_30-02-06_30-02-06_None_None_None_None_None 2.2.2 1.97406497868525 -6.203696350124888
bco_30-03-12_30-03-12_06-12-12_06-12-12_06-12-12_06-12-12_06-12-12 2.1.2 2.035493874298 -5.724346882809307
bco_30-03-12_30-03-12_07-12-12_07-12-12_07-12-12_07-12-12_07-12-12 2.1.2 2.084088984363 -6.378599551453869
bcp_30-03-12_30-03-12_06-12-12_06-12-12_06-12-12_06-12-12 1.2.1 1.915802671317 -6.506663915348597
bcp_30-03-12_30-03-12_07-12-12_07-12-12_07-12-12_07-12-12 1.2.1 1.9164968747860007 -7.127011000916268
bcq_30-03-12_30-03-12_06-12-12_06-12-12_06-12-12_06-12-12 1.1.2 2.2994092597530003 -4.9696398084738105
bcu-f_33-11-02_01-01-02_01-01-02_02-01-02 2.2.2 2.0263509318325004 -5.9704997120109065
bcu-f_33-11-02_01-01-02_02-01-02_01-01-02 2.2.2 1.7081663958808757 -6.444878703495187
bcu-f_33-11-02_01-01-02_02-01-02_02-01-02 2.2.2 1.5575933591905002 -6.785302823546956
bcu-f_33-11-02_02-01-02_01-01-02_01-01-02 2.2.2 2.1883234645107503 -5.7104742056709545
bcu-f_33-11-02_02-01-02_01-01-02_02-01-02 2.2.2 1.8290144074800003 -6.182927439492506
bcu-f_35-11-03_01-01-03_01-01-03_02-01-03 2.2.1 1.622165885834 -7.11994207381845
bcu-f_35-11-03_01-01-03_02-01-03_02-01-03 1.3.1 1.3727833178060689 -8.518930477830882
bcu-g_11-03-12_06-12-12_06-12-12_06-12-12 2.1.1 1.796353891303 -6.147205726765057
bcu-g_11-05-09_03-03-09_03-03-09_03-03-09 2.2.1 2.129393853972 -5.978920711476772
bcu-h_17-12-12_02-03-12_02-03-12_02-03-12 1.1.1 2.6587483794299995 -4.340629760551333
bcx_30-03-12_30-03-12_06-12-12_06-12-12_06-12-12_06-12-12 1.1.1 2.136599487712 -5.933692834887056
bcx_30-03-12_30-03-12_07-12-12_07-12-12_07-12-12_07-12-12 1.1.1 1.981202296911 -6.669035158841516
bcx_30-03-12_30-03-12_08-12-12_08-12-12_08-12-12_08-12-12 1.1.1 2.4957571414110005 -5.392390934582839
bcz_30-03-12_30-03-12_08-12-12_08-12-12_08-12-12_08-12-12 1.1.1 2.13121027782 -6.605658931473694
bew_31-02-08_31-02-08_06-10-08_06-10-08_07-10-08 3.2.3 1.920990344438016 -9.133378349540754
bex_25-12-12_20-12-12_02-03-12_02-03-12 1.2.5 0.9801211561503002 -7.425413100187153
bik_30-03-12_30-03-12_06-12-12_06-12-12_06-12-12_06-12-12 1.1.2 2.2919750235430003 -5.1202326062210926
bil_11-02-05_11-02-05_11-02-05_11-02-05_02-04-05_02-04-05_02-04-05_02-04-05_02-04-05_02-04-05 1.1.4 1.222506991004 -6.28877495724673
bil_12-03-12_12-03-12_12-03-12_12-03-12_06-12-12_06-12-12_06-12-12_06-12-12_06-12-12_06-12-12 1.1.3 1.0603755262574646 -7.678173595103874
bil_19-12-12_19-12-12_19-12-12_19-12-12_02-03-12_02-03-12_02-03-12_02-03-12_02-03-12_02-03-12 1.1.4 1.1073782914105 -6.315062758465651
bil_23-12-12_23-12-12_23-12-12_23-12-12_04-03-12_04-03-12_04-03-12_04-03-12_04-03-12_04-03-12 1.1.3 2.4996731629621496 -6.068361806496149
bil_35-11-03_35-11-03_35-11-03_35-11-03_01-01-03_01-01-03_01-01-03_01-01-03_01-01-03_01-01-03 1.1.3 1.6275885611880796 -8.202484867872469
bil_35-11-03_35-11-03_35-11-03_35-11-03_02-01-03_02-01-03_02-01-03_02-01-03_02-01-03_02-01-03 1.1.3 1.5377235316709563 -9.007131899189048
bmn_11-03-12_06-12-12_06-12-12 1.1.1 2.175391397988 -6.132993601032313
bmn_11-03-12_07-12-12_06-12-12 1.1.1 2.41550447448 -5.4600331159562
bmn_12-03-12_06-12-12_06-12-12 1.1.1 1.877539950286 -5.244004032628913
bmn_12-03-12_06-12-12_07-12-12 1.1.1 1.7728035233999997 -6.68325771520184
bmn_12-03-12_07-12-12_06-12-12 1.1.1 2.023612076582 -5.43706271303176
bmn_12-03-12_07-12-12_07-12-12 1.1.1 2.1982723956120003 -5.524027948230937
bmn_12-03-12_08-12-12_08-12-12 1.1.1 1.973977553036 -6.487884777473348
bmn_14-03-12_06-12-12_06-12-12 2.1.1 1.6141046205569998 -5.898793391120334
bmn_17-12-12_01-03-12_02-03-12 1.1.1 2.042513114226 -5.454485270300244
bnl_30-03-12_30-03-12_06-12-12_06-12-12_06-12-12_06-12-12_06-12-12 1.1.1 2.112624075924 -5.536273282939585
bnl_30-03-12_30-03-12_07-12-12_07-12-12_07-12-12_07-12-12_07-12-12 1.1.1 2.066349901383 -6.294357498905163
bod_11-03-12_12-03-12_07-12-12_07-12-12 2.1.3 1.8201307889991365 -6.783433711856451
bod_15-02-05_15-02-05_05-04-05_05-04-05 1.1.1 67.146865805989 -2.6543687418721107
bod_15-02-06_15-02-06_05-02-06_05-02-06 1.1.1 71.61840879759501 -2.644494551936029
bod_15-03-09_15-03-09_05-05-09_05-05-09 1.1.1 70.55909507048099 -2.72981919417728
bod_15-04-05_15-04-05_05-02-05_05-02-05 1.1.1 67.48516823811698 -2.628823365348984
bod_15-05-09_15-05-09_05-03-09_05-03-09 1.1.1 69.195275854537 -2.5921534817875824
boe_12-03-12_12-03-12_06-12-12_06-12-12 1.1.1 2.6604422218440003 -4.281594606893294
boe_12-03-12_12-03-12_06-12-12_07-12-12 1.1.1 2.372628990816 -4.5241862478239705
boe_12-03-12_12-03-12_07-12-12_06-12-12 1.1.1 2.650744598400001 -4.467194538307388
boe_12-03-12_12-03-12_07-12-12_07-12-12 1.1.1 2.415872235475 -4.957041587127803
boe_17-12-12_17-12-12_01-03-12_01-03-12 1.1.1 2.8363150475360004 -4.541499900115204
boe_17-12-12_17-12-12_01-03-12_02-03-12 1.1.1 2.4117201471 -4.819205955336648
boe_17-12-12_17-12-12_02-03-12_01-03-12 1.1.1 2.7950782010400004 -4.644069668632224
boe_17-12-12_17-12-12_02-03-12_02-03-12 1.1.1 2.3877915510959995 -4.810894373032118
boe_33-11-02_33-11-02_02-01-02_01-01-02 2.2.2 2.1713868196668757 -5.787592378675736
boe_34-11-10_34-11-10_01-06-10_02-06-10 2.2.2 1.84481898998525 -6.167031760232844
boe_34-11-10_34-11-10_02-06-10_01-06-10 2.2.2 2.287348016634 -6.014046432359373
boe_34-11-10_34-11-10_02-06-10_02-06-10 2.2.2 1.721286267579125 -6.255807815268018
bor_11-03-04_30-02-04_None 2.2.2 2.13461175036 -7.27888950179662
bor_11-04-05_30-02-05_None 2.2.2 2.26170053293275 -5.44470752550382
bor_11-05-09_30-03-09_None 2.2.2 2.575861480023 -5.180912117949156
bor_12-03-04_30-02-04_None 2.2.2 2.02966266475125 -7.619972423716207
bor_17-12-12_29-03-12_None 2.2.2 2.231903871574 -5.647260857453783
bor_18-12-12_30-03-12_None 2.2.2 2.1538032106634994 -5.979993224294482
bor_33-11-02_29-01-02_None 2.2.2 2.2505315272500006 -6.320319813890224
bor_34-11-10_28-06-10_None 2.2.2 2.4615654500205 -7.415480641991783
bor_34-11-10_29-06-10_None 2.2.2 2.494050129826125 -6.926573952743039
bpa_17-12-12_17-12-12_02-03-12_02-03-12_02-03-12_02-03-12 2.1.1 2.6847780838440003 -4.134834595583684
bpc_17-12-12_17-12-12_02-03-12_02-03-12_02-03-12_02-03-12 2.1.1 2.640775488287 -4.475287458042869
bpc_35-11-03_35-11-03_02-01-03_02-01-03_02-01-03_02-01-03 5.1.3 1.3909856332584 -8.671668424200659
bpe_11-03-12_11-03-12_07-12-12_07-12-12_07-12-12_07-12-12_07-12-12 1.2.1 2.4658188329355 -5.41941349218514
bpe_11-03-12_12-03-12_06-12-12_06-12-12_06-12-12_06-12-12_06-12-12 1.2.1 2.34957967078 -5.000989413852402
bpe_11-03-12_12-03-12_09-12-12_09-12-12_09-12-12_09-12-12_09-12-12 1.2.1 2.315875282875 -6.174387795523837
bpe_12-03-12_12-03-12_09-12-12_09-12-12_09-12-12_09-12-12_09-12-12 1.2.1 2.170013541471 -6.090592772171405
bpe_17-12-12_17-12-12_01-03-12_01-03-12_01-03-12_01-03-12_01-03-12 1.2.1 2.853032650893 -4.534604044695859
bpe_35-11-03_35-11-03_01-01-03_01-01-03_01-01-03_01-01-03_01-01-03 1.4.1 1.840648174749 -7.837522778804467
bpf_12-03-12_12-03-12_06-12-12_06-12-12_06-12-12_06-12-12_06-12-12 2.1.1 2.51104556199 -4.619543719740298
bpf_17-12-12_17-12-12_02-03-12_02-03-12_02-03-12_02-03-12_02-03-12 2.1.1 2.300530065376 -4.50757178864126
bpf_23-10-08_23-10-08_01-02-08_01-02-08_01-02-08_01-02-08_01-02-08 5.1.3 2.306001133154329 -6.534968671462754
bpf_35-11-03_35-11-03_01-01-03_01-01-03_01-01-03_01-01-03_01-01-03 5.1.3 1.8015458044302877 -8.378471081089748
bpg_17-12-12_17-12-12_02-03-12_02-03-12_02-03-12_02-03-12_02-03-12 1.1.1 2.464145351192 -4.217160400402446
bpg_23-10-08_18-10-08_02-02-08_02-02-08_02-02-08_02-02-08_02-02-08 3.4.1 1.611523253237076 -7.458432914384401
bpi_17-12-12_17-12-12_02-03-12_02-03-12_02-03-12_02-03-12 1.1.1 2.6203235776759994 -3.952644487534579
bpi_34-11-10_34-11-10_01-06-10_02-06-10_02-06-10_02-06-10 2.1.1 1.867368007188 -5.74510959781661
bpi_35-11-03_35-11-03_01-01-03_01-01-03_01-01-03_01-01-03 1.1.3 1.870260551677305 -8.557722554542918
bpi_35-11-03_35-11-03_02-01-03_02-01-03_02-01-03_02-01-03 1.1.3 1.4415521358193155 -8.95403417688454
bpi_35-11-03_35-11-03_04-01-03_04-01-03_04-01-03_04-01-03 1.1.3 1.573938679202673 -8.072838749253583
bpj_35-11-03_35-11-03_02-01-03_01-01-03_02-01-03 1.3.2 1.4453778263703263 -8.12603898685759
bpk_12-03-12_12-03-12_06-12-12_06-12-12_06-12-12_06-12-12_06-12-12 1.1.1 2.828267284247 -4.312301911266468
bpk_17-12-12_17-12-12_02-03-12_02-03-12_02-03-12_02-03-12_02-03-12 1.1.1 2.530459121961 -4.428569916923237
bpk_34-11-10_34-11-10_02-06-10_02-06-10_02-06-10_02-06-10_02-06-10 1.1.2 1.835608329916 -5.862401254948675
bpl_17-12-12_17-12-12_02-03-12_02-03-12_02-03-12_02-03-12_02-03-12 1.1.1 2.617844558208 -4.029502468508737
bpm_12-03-12_12-03-12_06-12-12_06-12-12_06-12-12_06-12-12_06-12-12 1.3.3 1.1835441593561726 -8.424429862608138
bpm_17-12-12_17-12-12_02-03-12_02-03-12_02-03-12_02-03-12_02-03-12 1.1.1 2.443073685714 -4.4882830846922745
bpm_23-10-08_23-10-08_02-02-08_02-02-08_02-02-08_02-02-08_02-02-08 1.3.3 1.8320122190551296 -7.852042255282044
bpo_17-12-12_17-12-12_02-03-12_02-03-12_02-03-12_02-03-12_02-03-12 1.1.1 2.518683779488 -4.393716032717455
bpp_12-03-12_12-03-12_06-12-12_06-12-12_06-12-12 2.1.1 2.7020116320405005 -4.2035585415555445
bpp_17-12-12_17-12-12_02-03-12_02-03-12_02-03-12 2.1.1 2.4009303547580005 -4.407905339002793
bpp_34-11-10_34-11-10_02-06-10_02-06-10_02-06-10 2.2.1 1.7559577132180002 -6.115519242247358
bpr_11-03-12_23-12-12_None_None 1.1.1 2.279595533514 -5.888493924348573
bpr_11-04-05_11-02-05_None_None 1.1.1 2.572899576 -5.186901689619833
bpr_11-05-09_12-03-09_None_None 1.1.1 2.5630490560770003 -5.248706488997786
bpr_12-03-12_12-03-12_06-12-12_06-12-12 1.1.1 2.8057593168119994 -4.44413693406913
bpr_12-03-12_19-12-12_None_None 1.1.1 2.358673390464 -5.203422340562629
bpr_17-10-08_17-10-08_02-02-08_02-02-08 1.1.1 1.650498545584 -6.817587957694015
bpr_17-12-12_17-12-12_01-03-12_02-03-12 1.1.1 2.872675647023 -4.577829055057599
bpr_17-12-12_17-12-12_02-03-12_01-03-12 1.1.1 2.7140020326000003 -4.533460166127485
bpr_19-12-12_12-03-12_None_None 1.1.1 2.2989097065840003 -5.233608565153195
bpr_21-12-12_12-03-12_None_None 1.1.1 2.4685681449 -5.691909370364367
bpr_23-12-12_11-03-12_None_None 1.1.1 2.323336273578 -6.04575539142658
bpr_34-11-10_34-11-10_02-06-10_02-06-10 1.1.1 1.7960433194249998 -6.394626152070582
bps_23-10-08_23-10-08_02-02-08_02-02-08_02-02-08_02-02-08 1.3.1 1.8862716078000008 -7.571669901380653
bpt_17-12-12_17-12-12_02-03-12_02-03-12_02-03-12_02-03-12 2.1.1 2.6740356656100004 -4.156776038143142
bpu_11-03-12_12-03-12_06-12-12_06-12-12_06-12-12_06-12-12 1.1.1 2.397142876128 -4.733883442453437
bpu_12-03-12_11-03-12_06-12-12_06-12-12_06-12-12_06-12-12 1.1.1 2.5174539691290003 -4.824100365510948
bpu_12-03-12_12-03-12_06-12-12_06-12-12_06-12-12_06-12-12 1.1.1 2.308942733604 -4.882336367488533
bpu_12-03-12_12-03-12_07-12-12_07-12-12_07-12-12_07-12-12 1.1.1 2.332773083886 -5.078928099174941
bpv_15-03-09_15-03-09_05-05-09_05-05-09_05-05-09_05-05-09 1.1.1 54.90535353049999 -2.6611262527779904
bto-z_12-03-12_06-12-12_06-12-12 2.2.1 2.56684657470675 -4.4660079124061225
bto-z_12-03-12_06-12-12_07-12-12 2.2.1 2.5773835826025 -4.468157101873991
bto-z_17-12-12_01-03-12_02-03-12 2.2.1 2.82423946422 -4.203348175264537
bto-z_17-12-12_02-03-12_01-03-12 2.2.1 2.648154117408 -4.4466823281644805
bto-z_17-12-12_02-03-12_02-03-12 2.2.1 2.46910338963 -4.372821798387065
bto-z_34-11-10_02-06-10_02-06-10 3.3.1 1.6770013297956834 -5.616893936947554
bto_12-03-12_06-12-12_06-12-12 2.2.1 2.611862517558749 -4.48232854019301
bto_12-03-12_06-12-12_07-12-12 2.2.1 2.540109252131 -4.598908026368688
bto_12-03-12_07-12-12_06-12-12 2.2.1 2.4761460769727504 -4.76947726178436
bto_17-12-12_01-03-12_02-03-12 2.2.1 2.749054932408 -4.4184277212060445
bto_17-12-12_02-03-12_01-03-12 2.2.1 2.609891137889 -4.20272397021758
bto_17-12-12_02-03-12_02-03-12 2.2.1 2.3658109118175 -4.276463375413557
bto_34-11-10_02-06-10_02-06-10 3.3.1 1.755360044688748 -6.313631284005009
byl_30-03-12_30-03-12_06-12-12_06-12-12_06-12-12_06-12-12_06-12-12_06-12-12 1.1.1 2.182691751256 -5.328108214435599
cag-b_30-02-05_30-04-05_None_None_None_None 2.1.2 1.8327507457835 -6.45904229483193
cag-b_30-03-09_30-05-09_None_None_None_None 2.1.2 1.969263481317 -6.234272317173894
cag-b_30-03-12_30-03-12_06-12-12_06-12-12_06-12-12_06-12-12 1.1.1 2.200162207336 -4.897948701769018
cag-b_30-04-05_30-02-05_None_None_None_None 2.1.2 1.820126914723 -6.0083799885339335
cag-b_30-05-09_30-03-09_None_None_None_None 2.1.2 2.008567830225 -6.089247984768579
cag_30-03-12_06-12-12_06-12-12_06-12-12_06-12-12 1.1.1 2.205737884496 -5.000531798116299
cal-d_30-03-12_30-03-12_30-03-12_30-03-12_06-12-12_06-12-12_06-12-12_06-12-12_06-12-12_06-12-12_06-12-12 1.1.1 2.317382615424 -5.081005199978223
cas_30-03-12_30-03-12_30-03-12_06-12-12_06-12-12_06-12-12_06-12-12_06-12-12_06-12-12 2.1.1 2.2927184471640003 -5.278345944062165
cbn_30-03-12_30-03-12_30-03-12_30-03-12_06-12-12_06-12-12_06-12-12_06-12-12_06-12-12_06-12-12_06-12-12_06-12-12 1.2.1 2.19124112388 -5.131111460198576
cbo_30-03-12_06-12-12_06-12-12 1.1.1 2.207224730749 -5.442545999189424
cbo_30-03-12_06-12-12_07-12-12 1.1.1 2.155111867904 -5.757880676118265
cbo_30-03-12_07-12-12_06-12-12 1.1.1 2.11334064576 -5.791118955980002
cbo_30-03-12_07-12-12_07-12-12 1.1.1 2.030027012552 -5.830718475564286
cda_28-03-12_30-03-12_06-12-12_08-12-12 1.1.2 2.4723495405055003 -5.459152810161081
cda_30-03-09_30-03-09_02-05-09_02-05-09 1.1.2 1.72683139872 -5.5720937903518655
cda_30-03-12_30-03-12_06-12-12_06-12-12 1.1.2 1.9247237547690004 -6.045393558105454
cda_30-03-12_30-03-12_06-12-12_07-12-12 1.1.2 1.8560975460300009 -6.153399406506522
cda_30-03-12_30-03-12_07-12-12_06-12-12 1.1.2 1.899089415575 -6.593589517263071
cda_30-03-12_30-03-12_07-12-12_07-12-12 1.1.2 1.5765822316205005 -8.088973830977276
cda_30-03-12_30-03-12_08-12-12_08-12-12 1.1.2 2.315308375317 -5.855687843695467
cda_30-03-12_30-03-12_09-12-12_08-12-12 1.1.2 2.087758377817 -7.731028399381112
cda_30-03-12_30-03-12_09-12-12_09-12-12 1.1.2 2.0176520828305 -7.3885574510903504
cdl-a_15-02-05_15-02-05_15-02-05_05-04-05_05-04-05_05-04-05_05-04-05_05-04-05 1.1.1 59.650031036736 -2.6533017462359068
cdl-a_15-02-06_15-02-06_15-02-06_05-02-06_05-02-06_05-02-06_05-02-06_05-02-06 1.1.1 63.583702736099006 -2.607255222507688
cdl-a_15-03-09_15-03-09_15-03-09_05-05-09_05-05-09_05-05-09_05-05-09_05-05-09 1.1.1 64.28345084325001 -2.6600788261532786
cdl-a_15-04-05_15-04-05_15-04-05_05-02-05_05-02-05_05-02-05_05-02-05_05-02-05 1.1.1 62.414706348144 -2.69972173452815
cdl-a_15-05-09_15-05-09_15-05-09_05-03-09_05-03-09_05-03-09_05-03-09_05-03-09 1.1.1 63.804811246875 -2.7233591223355464
cdp_30-03-12_30-03-12_06-12-12_06-12-12_06-12-12 1.1.1 2.325429086488 -5.46709364395243
cdp_30-03-12_30-03-12_06-12-12_07-12-12_07-12-12 1.1.1 2.202856855017 -5.506164078479676
cds-a_11-03-12_11-03-12_08-12-12_08-12-12_08-12-12 5.4.1 2.2813422993232004 -7.531769789234969
cds-a_15-02-05_15-02-05_05-04-05_05-04-05_05-04-05 1.1.1 58.45297788786299 -2.70706361487882
cds-a_15-02-06_15-02-06_05-02-06_05-02-06_05-02-06 1.1.1 61.189101614004 -2.59575818458562
cds-a_15-03-09_15-03-09_05-05-09_05-05-09_05-05-09 1.1.1 64.41815454809301 -2.5935917798729897
cds-a_15-04-05_15-04-05_05-02-05_05-02-05_05-02-05 1.1.1 58.88246339769299 -2.6161060449702074
cds-a_15-05-09_15-05-09_05-03-09_05-03-09_05-03-09 1.1.1 63.19257218948299 -2.710508599050514
cds-a_35-11-03_35-11-03_02-01-03_01-01-03_02-01-03 4.4.1 1.78410407066125 -7.684556012409565
cee-a_15-02-05_15-02-05_15-02-05_15-02-05_03-04-05_03-04-05_03-04-05_03-04-05_03-04-05_03-04-05_03-04-05 1.1.1 65.277988749324 -2.6269995320144286
cee-a_15-02-05_15-02-05_15-02-05_15-02-05_04-04-05_04-04-05_04-04-05_04-04-05_04-04-05_04-04-05_04-04-05 1.1.1 57.182986365627 -2.631905666137995
cee-a_15-02-06_15-02-06_15-02-06_15-02-06_03-02-06_03-02-06_03-02-06_03-02-06_03-02-06_03-02-06_03-02-06 1.1.1 73.125030812112 -2.682991177477853
cee-a_15-02-06_15-02-06_15-02-06_15-02-06_04-02-06_04-02-06_04-02-06_04-02-06_04-02-06_04-02-06_04-02-06 1.1.1 65.986890224112 -2.7099682103799063
cee-a_15-03-09_15-03-09_15-03-09_15-03-09_01-05-09_01-05-09_01-05-09_01-05-09_01-05-09_01-05-09_01-05-09 1.1.1 55.73454817588201 -2.6437883950829417
cee-a_15-03-09_15-03-09_15-03-09_15-03-09_03-05-09_03-05-09_03-05-09_03-05-09_03-05-09_03-05-09_03-05-09 1.1.1 71.47044704278301 -2.6787811304549645
cee-a_15-03-09_15-03-09_15-03-09_15-03-09_04-05-09_04-05-09_04-05-09_04-05-09_04-05-09_04-05-09_04-05-09 1.1.1 64.501400699904 -2.6866609779127133
cee-a_15-04-05_15-04-05_15-04-05_15-04-05_01-02-05_01-02-05_01-02-05_01-02-05_01-02-05_01-02-05_01-02-05 1.1.1 53.06776357752 -2.6988441979514093
cee-a_15-04-05_15-04-05_15-04-05_15-04-05_03-02-05_03-02-05_03-02-05_03-02-05_03-02-05_03-02-05_03-02-05 1.1.1 68.421374661744 -2.6934950594602847
cee-a_15-04-05_15-04-05_15-04-05_15-04-05_04-02-05_04-02-05_04-02-05_04-02-05_04-02-05_04-02-05_04-02-05 1.1.1 62.752385182446005 -2.6633977683192245
cee-a_15-05-09_15-05-09_15-05-09_15-05-09_01-03-09_01-03-09_01-03-09_01-03-09_01-03-09_01-03-09_01-03-09 1.1.1 55.79075992593599 -2.717901966422215
cee-a_15-05-09_15-05-09_15-05-09_15-05-09_03-03-09_03-03-09_03-03-09_03-03-09_03-03-09_03-03-09_03-03-09 1.1.1 71.465651357049 -2.721318102100404
cee-a_15-05-09_15-05-09_15-05-09_15-05-09_04-03-09_04-03-09_04-03-09_04-03-09_04-03-09_04-03-09_04-03-09 1.1.1 64.96982799731201 -2.624875361395816
cee-a_16-04-05_16-04-05_16-04-05_16-04-05_05-02-05_05-02-05_05-02-05_05-02-05_05-02-05_05-02-05_05-02-05 1.1.1 53.76271531200001 -2.6645873941775
cee-a_16-05-09_16-05-09_16-05-09_16-05-09_05-03-09_05-03-09_05-03-09_05-03-09_05-03-09_05-03-09_05-03-09 1.1.1 57.49648162883199 -2.634809611046092
cef-a_16-05-09_16-05-09_16-05-09_28-05-09_05-03-09_05-03-09_05-03-09_05-03-09_05-03-09_05-03-09_05-03-09_05-03-09 1.1.1 55.4784570288 -2.6777102025192705
cem-a_23-12-12_23-12-12_23-12-12_01-03-12_01-03-12_01-03-12_01-03-12_01-03-12_01-03-12 1.1.3 2.0980997994722657 -7.159820347291919
cem-a_23-12-12_23-12-12_23-12-12_04-03-12_04-03-12_04-03-12_04-03-12_04-03-12_04-03-12 1.1.3 2.282052412809819 -6.305950584378253
cem-a_35-11-03_35-11-03_35-11-03_01-01-03_01-01-03_01-01-03_01-01-03_01-01-03_01-01-03 1.2.3 1.8620869562292064 -7.76253631914519
cez-a_17-12-12_17-12-12_17-12-12_17-12-12_01-03-12_01-03-12_01-03-12_01-03-12_01-03-12_01-03-12_01-03-12 1.1.1 2.680073790948 -5.300312026991599
cfc_30-03-12_30-03-12_06-12-12_06-12-12_06-12-12 2.2.1 2.24309492046225 -5.336050154942448
cfc_30-03-12_30-03-12_06-12-12_07-12-12_06-12-12 2.2.1 2.1025233798325003 -5.598062975219023
cfc_30-03-12_30-03-12_07-12-12_06-12-12_07-12-12 2.2.1 2.1752738945377503 -5.883531044074187
cfc_30-03-12_30-03-12_07-12-12_07-12-12_06-12-12 2.2.1 2.147542336999 -5.790447886277252
cfc_30-03-12_30-03-12_07-12-12_07-12-12_07-12-12 2.2.1 2.12311496998375 -5.894339929514157
cfd_30-03-12_30-03-12_30-03-12_06-12-12_06-12-12_06-12-12_06-12-12 2.2.1 2.2325011338630003 -5.307959742416537
cfd_30-03-12_30-03-12_30-03-12_07-12-12_07-12-12_07-12-12_07-12-12 2.2.1 2.1060516608852504 -5.719162224798162
cfe_30-03-12_30-03-12_30-03-12_06-12-12_06-12-12_06-12-12_06-12-12 2.2.1 2.2069769236175 -4.98578055707811
cfe_30-03-12_30-03-12_30-03-12_07-12-12_07-12-12_07-12-12_07-12-12 2.2.1 2.12441020444525 -5.553070239900785
clh_11-02-08_11-02-08_06-10-08_06-10-08_06-10-08 9.9.1 1.061066936729428 -8.89672953877982
clh_11-03-12_11-03-12_06-12-12_06-12-12_06-12-12 3.3.1 2.3488760118801992 -5.326370047329424
clh_12-02-08_11-02-08_06-10-08_06-10-08_06-10-08 9.9.1 0.9859797161972336 -8.705629111987742
clh_12-03-12_11-03-12_06-12-12_06-12-12_06-12-12 7.7.1 1.0165528720928645 -7.620376148229819
clh_17-12-12_17-12-12_01-03-12_01-03-12_01-03-12 2.2.1 2.6732395493625005 -4.52511645615953
clh_35-11-03_35-11-03_02-01-03_01-01-03_01-01-03 5.5.1 1.7121531929252 -8.108294635490065
cnw_30-03-12_30-03-12_30-03-12_30-03-12_06-12-12_06-12-12_06-12-12_06-12-12_06-12-12_06-12-12_06-12-12 1.2.1 2.173956524684 -5.336817647876639
cnw_30-03-12_30-03-12_30-03-12_30-03-12_07-12-12_07-12-12_07-12-12_07-12-12_07-12-12_07-12-12_07-12-12 1.2.1 2.0881436314199995 -5.627607540599198
coe_30-03-12_30-03-12_06-12-12_06-12-12_06-12-12_06-12-12_06-12-12 2.1.2 1.887087934802 -6.365152225818659
coe_30-03-12_30-03-12_09-12-12_09-12-12_09-12-12_09-12-12_09-12-12 2.1.1 1.5365289691 -9.50678208323068
cpa_30-04-05_11-04-05_01-02-05_01-02-05 1.1.3 2.03503655872 -6.484521908118992
cpa_30-04-05_11-04-05_04-02-05_04-02-05 1.1.3 2.168355232277857 -6.9338778506976695
cpj_24-02-08_24-02-08_06-10-08_06-10-08_07-10-08 2.1.3 2.0369312201405565 -7.586724901689492
cpj_31-01-01_31-01-01_06-08-01_06-08-01_07-08-01 2.1.3 1.84510171323166 -8.224866814814984
cpj_31-03-12_31-03-12_06-12-12_06-12-12_06-12-12 3.1.3 1.443269863770562 -8.844679929095951
cpq_11-03-09_11-03-09_02-05-09_02-05-09_02-05-09_02-05-09 1.1.5 1.1103162672000002 -7.533274889335268
cpq_11-03-12_11-03-12_06-12-12_06-12-12_06-12-12_06-12-12 1.2.4 1.3229512929998748 -9.253614219485613
cpq_11-03-12_12-03-12_06-12-12_06-12-12_06-12-12_06-12-12 2.1.3 1.305383866146179 -9.888039612441473
cpq_11-05-09_11-05-09_01-03-09_01-03-09_01-03-09_01-03-09 1.1.5 1.1957075011152 -6.726423019455485
cpq_12-03-12_11-03-12_06-12-12_06-12-12_06-12-12_06-12-12 1.1.3 1.0792332228737616 -7.338454285971768
cpq_12-03-12_12-03-12_06-12-12_06-12-12_06-12-12_06-12-12 1.1.3 1.0610007138639523 -7.2701296703669405
cpq_18-12-12_23-12-12_01-03-12_01-03-12_01-03-12_01-03-12 4.3.5 1.4620831815040003 -11.036713232715716
cpq_18-12-12_23-12-12_02-03-12_02-03-12_02-03-12_02-03-12 1.2.3 1.45489592875301 -7.889390615066686
cpq_18-12-12_23-12-12_04-03-12_04-03-12_04-03-12_04-03-12 1.2.4 1.7514450651825002 -7.726436640169958
cpq_23-12-12_18-12-12_01-03-12_01-03-12_01-03-12_01-03-12 1.2.5 1.7487755609616 -9.601669339337423
cpq_23-12-12_18-12-12_02-03-12_02-03-12_02-03-12_02-03-12 1.2.4 1.5202469817315 -9.457741255203471
cpq_23-12-12_18-12-12_03-03-12_03-03-12_03-03-12_03-03-12 1.1.3 2.108427774043068 -6.02205846012459
cpq_23-12-12_23-12-12_01-03-12_01-03-12_01-03-12_01-03-12 1.1.3 2.114014280420061 -6.523088841232456
cpq_23-12-12_23-12-12_03-03-12_03-03-12_03-03-12_03-03-12 1.1.3 2.619819559745144 -6.2260952243575005
cpq_23-12-12_23-12-12_04-03-12_04-03-12_04-03-12_04-03-12 1.1.3 1.867569754373945 -7.029136703332196
cpq_35-11-03_35-11-03_01-01-03_01-01-03_01-01-03_01-01-03 2.1.2 2.00187156836 -6.388959624625542
cpq_35-11-03_35-11-03_03-01-03_03-01-03_03-01-03_03-01-03 1.1.3 2.15109912361512 -7.362530024594381
cps_30-04-05_11-04-05_01-02-05_01-02-05_01-02-05_01-02-05 1.1.3 1.524115655544355 -6.984457543835825
cqb_25-12-12_25-12-12_02-03-12_02-03-12_02-03-12_02-03-12_02-03-12 1.1.3 0.9925045674191292 -8.61423918912296
cqb_31-03-12_31-03-12_06-12-12_06-12-12_06-12-12_06-12-12_06-12-12 2.1.4 1.3430504327759996 -9.979921706926651
cqc_31-02-05_31-02-05_01-04-05_01-04-05_01-04-05_01-04-05_01-04-05 1.1.3 1.8193628454863549 -6.778486668290246
cqc_31-05-09_31-05-09_01-03-09_01-03-09_01-03-09_01-03-09_01-03-09 1.1.3 2.019622458978802 -6.757154630773497
cqd_31-03-12_31-03-12_10-12-12_10-12-12_10-12-12_10-12-12_10-12-12_10-12-12 2.1.3 1.8360465147127425 -8.192668889319433
cqj_11-03-12_11-03-12_11-03-12_06-12-12_06-12-12_06-12-12 2.2.4 1.5112871965643755 -9.064150260452944
cqj_17-12-12_17-12-12_17-12-12_02-03-12_02-03-12_02-03-12 1.1.4 0.6837135691364997 -8.221524044881452
cqj_18-12-12_18-12-12_18-12-12_02-03-12_02-03-12_02-03-12 1.1.4 0.96709595460775 -7.512218104999718
cqj_23-12-12_23-12-12_23-12-12_01-03-12_01-03-12_01-03-12 1.1.3 2.128958508361713 -7.149705792797186
cqj_35-11-03_35-11-03_35-11-03_01-01-03_01-01-03_01-01-03 1.1.2 1.958370691844 -6.450599466646781
cqj_35-11-03_35-11-03_35-11-03_01-01-03_01-01-03_02-01-03 1.1.3 1.6783064040394478 -8.088366484893362
cqj_35-11-03_35-11-03_35-11-03_01-01-03_02-01-03_02-01-03 2.2.3 1.578661551788609 -9.085250011019015
cqj_35-11-03_35-11-03_35-11-03_02-01-03_01-01-03_01-01-03 1.1.3 1.3054703825800005 -8.114560804787782
cqj_35-11-03_35-11-03_35-11-03_02-01-03_01-01-03_02-01-03 1.1.3 1.5206401072967966 -8.037995426360203
cqn_11-04-05_11-04-05_30-04-05_11-04-05_01-02-05_01-02-05_01-02-05_01-02-05_01-02-05 1.1.3 1.9895566020009847 -6.344846772343912
cqn_11-04-05_11-04-05_30-04-05_11-04-05_02-02-05_02-02-05_02-02-05_02-02-05_02-02-05 1.1.3 1.3970979269027175 -7.292051107431755
cqn_11-04-05_11-04-05_30-04-05_11-04-05_03-02-05_03-02-05_03-02-05_03-02-05_03-02-05 1.1.3 1.808383432105948 -6.23572648349466
cqu_11-04-05_11-04-05_11-04-05_30-04-05_01-02-05_01-02-05_01-02-05_01-02-05_01-02-05_01-02-05 1.1.3 2.1322434254963563 -5.721807048071758
cqu_11-04-05_11-04-05_11-04-05_30-04-05_02-02-05_02-02-05_02-02-05_02-02-05_02-02-05_02-02-05 1.1.3 1.5645258585004698 -6.615948717449686
cqz_30-04-05_12-04-05_30-04-05_01-02-05_01-02-05_01-02-05_01-02-05_01-02-05 1.1.3 1.716215518628 -6.613499567320107
crb-b3_30-03-12_30-03-12_30-03-12_06-12-12_06-12-12_06-12-12_06-12-12 1.1.1 2.400886585096 -5.049303045457022
crb-b_30-02-05_30-04-05_None_None 2.2.2 1.7633196749507498 -6.040239068697487
crb-b_30-03-09_30-05-09_None_None 2.2.2 1.9987417429980008 -6.335920409490367
crb-b_30-03-12_30-03-12_06-12-12_06-12-12 1.1.2 2.2146589669590004 -5.138230475996855
crb-b_30-04-05_30-02-05_None_None 2.2.2 1.7925840105909998 -6.425356115732769
crb-b_30-05-09_30-03-09_None_None 2.2.2 2.003943789177 -6.234018349992173
crb_30-03-12_06-12-12_06-12-12 1.1.2 2.2994092597530007 -5.056152389098991
cru_25-12-12_20-12-12_02-03-12_02-03-12_02-03-12_02-03-12 1.1.4 0.9431970479215 -7.3770894099913535
cru_30-04-05_11-04-05_01-02-05_01-02-05_01-02-05_01-02-05 1.1.3 1.847814333525 -6.438741751502759
crx_11-04-05_30-04-05_11-04-05_01-02-05_01-02-05_01-02-05 1.1.3 1.948761817830991 -6.043304533735344
cry_11-03-12_11-03-12_11-03-12_06-12-12_06-12-12_06-12-12 2.2.4 1.271056125149625 -9.601131918007429
cry_12-03-12_12-03-12_12-03-12_06-12-12_06-12-12_06-12-12 1.1.3 1.1248626158077788 -7.389166892150174
cry_17-12-12_17-12-12_17-12-12_02-03-12_02-03-12_02-03-12 1.1.3 1.0742417780438835 -8.198819253281249
cry_17-12-12_17-12-12_17-12-12_03-03-12_03-03-12_03-03-12 2.4.5 1.3855889105897998 -8.890888498188065
cry_23-12-12_23-12-12_23-12-12_01-03-12_01-03-12_01-03-12 1.1.3 2.2102224702137203 -7.09456941721737
cry_23-12-12_23-12-12_23-12-12_04-03-12_04-03-12_04-03-12 1.1.3 2.6224012947069446 -5.485943483694834
cry_35-11-03_35-11-03_35-11-03_01-01-03_01-01-03_02-01-03 1.1.3 1.6265336675316688 -8.495752545640244
cry_35-11-03_35-11-03_35-11-03_01-01-03_02-01-03_01-01-03 1.1.3 1.6355931117863352 -8.033513839958635
cry_35-11-03_35-11-03_35-11-03_03-01-03_03-01-03_03-01-03 1.1.3 2.1617155336990668 -6.996828833350072
ctn_11-02-04_30-03-04_None 2.2.2 2.194280513450625 -7.340227634361579
ctn_11-02-05_30-04-05_None 1.1.1 2.28283792074 -5.779383069543418
ctn_11-03-09_30-05-09_None 1.1.1 2.418556962528001 -5.564523091857558
ctn_11-05-09_30-03-09_None 1.1.1 2.4906548665600003 -5.168265205954985
ctn_12-02-04_30-03-04_None 2.2.2 2.05078351964325 -8.03329906611379
ctn_12-02-05_30-04-05_None 1.1.1 2.19709988856 -5.266253824863896
ctn_12-03-09_30-05-09_None 1.1.1 2.136583007488 -5.279559507604437
ctn_12-04-05_30-02-05_None 1.1.1 1.889216812071 -5.652412299003675
ctn_17-08-01_30-01-01_None 2.2.2 1.8889520580787496 -7.926465531402008
ctn_17-10-08_30-02-08_None 2.2.2 2.1271961494725 -8.961166465732775
ctn_17-12-12_28-03-12_None 1.1.1 2.03343670634 -5.557005220050223
ctn_17-12-12_30-03-12_None 2.2.2 2.0184007804585 -9.52137587831336
ctn_23-12-12_30-03-12_None 1.1.1 2.05377507748 -6.630192060070984
ctn_33-11-02_28-01-02_None 2.2.2 2.09495818785 -6.864141196917124
ctn_33-11-02_29-01-02_None 1.1.1 2.1586150817160004 -6.553149621855151
ctn_35-11-03_29-01-03_None 1.1.1 2.1475185974620006 -6.48869024990457
ctn_35-11-03_30-01-03_None 2.2.2 1.260856753156 -12.834644837881006
ctn_36-11-11_29-07-11_None 1.1.1 2.028966682901 -6.629947894632672
cus_30-03-12_30-03-12_06-12-12_06-12-12_06-12-12_06-12-12 2.1.1 2.41705604886 -4.890721809712408
dea_30-03-12_11-03-12_11-03-12_06-12-12_06-12-12_06-12-12_06-12-12_06-12-12 1.1.1 2.520236315212 -4.910605228005848
dea_30-03-12_12-03-12_12-03-12_06-12-12_06-12-12_06-12-12_06-12-12_06-12-12 1.1.1 2.4757700268000007 -4.484917105153126
dhc_31-03-12_31-03-12_31-03-12_31-03-12_31-03-12_06-12-12_06-12-12_06-12-12_06-12-12_06-12-12_06-12-12 1.1.3 1.3191052343242342 -7.898374724898081
dhf_19-12-12_19-12-12_19-12-12_19-12-12_02-03-12_02-03-12_02-03-12_02-03-12_02-03-12_02-03-12_02-03-12 1.1.4 1.0840062013199998 -7.423899736380067
dhf_23-12-12_23-12-12_23-12-12_23-12-12_01-03-12_01-03-12_01-03-12_01-03-12_01-03-12_01-03-12_01-03-12 1.1.3 2.340602533988989 -5.8411424465151125
dhh_11-03-12_11-03-12_11-03-12_11-03-12_06-12-12_06-12-12_06-12-12_06-12-12_06-12-12_06-12-12 1.1.4 1.3437168712559997 -8.686970083712106
dhh_17-12-12_17-12-12_17-12-12_17-12-12_01-03-12_01-03-12_01-03-12_01-03-12_01-03-12_01-03-12 4.2.4 1.07507863917 -8.377983567224337
dhh_17-12-12_17-12-12_17-12-12_17-12-12_02-03-12_02-03-12_02-03-12_02-03-12_02-03-12_02-03-12 1.1.3 1.025212283512531 -8.804882403645749
dhh_23-12-12_23-12-12_23-12-12_23-12-12_02-03-12_02-03-12_02-03-12_02-03-12_02-03-12_02-03-12 1.1.3 1.5373927311822595 -7.363592985423722
dhh_35-11-03_35-11-03_35-11-03_35-11-03_01-01-03_01-01-03_01-01-03_01-01-03_01-01-03_01-01-03 1.1.3 1.5645538301234057 -8.524552026219057
dhh_35-11-03_35-11-03_35-11-03_35-11-03_02-01-03_02-01-03_02-01-03_02-01-03_02-01-03_02-01-03 1.2.3 1.5725559095280914 -9.563436210519606
dia-b3++_30-02-06_30-02-06_30-02-06_None_None 2.2.3 1.9047083515650305 -6.596274381406084
dia-b3++_30-03-12_30-03-12_30-03-12_06-12-12_06-12-12 2.2.1 2.1499811124140003 -5.249572030955288
dia-b3++_30-03-12_30-03-12_30-03-12_06-12-12_07-12-12 2.2.1 2.2099808471845 -5.532230265513805
dia-b3++_30-03-12_30-03-12_30-03-12_07-12-12_06-12-12 2.2.1 2.1632537173065 -5.526922413600535
dia-b3+_30-02-06_30-02-06_30-02-06_None_None 2.2.3 1.9658287324324408 -6.802615272638261
dia-b3+_30-03-12_30-03-12_30-03-12_06-12-12_06-12-12 1.1.1 2.257034113356 -5.112341415612712
dia-b3+_30-03-12_30-03-12_30-03-12_06-12-12_07-12-12 1.1.1 2.14090195164 -5.908415312813482
dia-b3+_30-03-12_30-03-12_30-03-12_07-12-12_06-12-12 1.1.1 2.419509448088 -5.058203530757574
dia-b3+_30-03-12_30-03-12_30-03-12_07-12-12_07-12-12 1.1.1 2.18140053254 -5.782277177929806
dia-b3_30-02-06_30-02-06_30-02-06_None_None 2.2.2 1.9678878980781256 -6.675161459839648
dia-b3_30-03-12_30-03-12_30-03-12_06-12-12_06-12-12 1.1.1 2.234731405728 -4.984166577326317
dia-b4+_30-02-06_30-02-06_30-02-06_30-02-06_None_None_None 2.2.3 1.945888803514993 -6.815405518111789
dia-b4+_30-03-12_30-03-12_30-03-12_30-03-12_06-12-12_06-12-12_06-12-12 1.1.1 2.3328633226980005 -5.010735856014685
dia-b4+_30-03-12_30-03-12_30-03-12_30-03-12_06-12-12_07-12-12_06-12-12 1.1.1 2.136653127718 -5.64215549826952
dia-b4+_30-03-12_30-03-12_30-03-12_30-03-12_07-12-12_06-12-12_06-12-12 1.1.1 2.402102905296 -5.0876334784374775
dia-b4+_30-03-12_30-03-12_30-03-12_30-03-12_07-12-12_06-12-12_07-12-12 1.1.1 2.176168747355 -5.665629913974127
dia-b4+_30-03-12_30-03-12_30-03-12_30-03-12_07-12-12_07-12-12_07-12-12 1.1.1 2.203701095605 -5.416378338485355
dia-b4_30-02-06_30-02-06_30-02-06_30-02-06_None_None_None 2.2.2 1.9565090650312504 -6.940665180464298
dia-b4_30-03-12_30-03-12_30-03-12_30-03-12_06-12-12_06-12-12_06-12-12 1.1.1 2.187895717584 -4.934224447823025
dia-b4_30-03-12_30-03-12_30-03-12_30-03-12_06-12-12_06-12-12_07-12-12 1.1.1 2.137741037625 -5.397683299527332
dia-b4_30-03-12_30-03-12_30-03-12_30-03-12_06-12-12_07-12-12_07-12-12 1.1.1 2.226972529728 -5.1126440927488375
dia-b4_30-03-12_30-03-12_30-03-12_30-03-12_07-12-12_06-12-12_07-12-12 1.1.1 2.054809480738 -5.461277834225055
dia-b4_30-03-12_30-03-12_30-03-12_30-03-12_07-12-12_07-12-12_06-12-12 1.1.1 2.05895851553 -5.50483288526383
dia-b4_30-03-12_30-03-12_30-03-12_30-03-12_07-12-12_07-12-12_07-12-12 1.1.1 2.130717433614 -5.5964669556014375
dia-b5_30-03-12_30-03-12_30-03-12_30-03-12_30-03-12_06-12-12_06-12-12_06-12-12_06-12-12 1.1.1 2.19681680104 -5.232516544076586
dia-b_30-02-05_30-04-05_None 2.2.2 1.7248743712665005 -6.243726622079635
dia-b_30-02-06_30-02-06_None 2.2.3 1.959326802207553 -6.81904495438379
dia-b_30-03-09_30-05-09_None 2.2.2 1.951345322256 -6.417979240539227
dia-b_30-03-12_30-03-12_06-12-12 1.1.1 2.3127908849310006 -5.193412248189854
dia-b_30-04-05_30-02-05_None 2.2.2 1.7547125174095002 -6.405862829640053
dia-b_30-05-09_30-03-09_None 2.2.2 1.980245578806 -6.562309239282343
dia-f_11-03-12_06-12-12_06-12-12 1.1.7 1.1148073678646608 -7.847203271791072
dia-f_35-11-03_01-01-03_02-01-03 1.1.5 1.4293492090888 -8.282949038222398
dia-f_35-11-03_02-01-03_01-01-03 1.1.5 1.4142910812419998 -8.964935620464702
dia-g_13-03-09_05-05-09_05-05-09_05-05-09 1.1.1 56.03387857459401 -2.64673563527786
dia-g_14-03-09_05-05-09_05-05-09_05-05-09 1.1.1 54.7481773968 -2.7633177744674424
dia-g_14-05-09_05-03-09_05-03-09_05-03-09 1.1.1 55.611288584 -2.5752394939954444
dia-g_15-02-04_05-03-04_05-03-04_05-03-04 1.1.1 61.06518951419899 -2.65158374547456
dia-g_15-02-05_03-04-05_03-04-05_03-04-05 1.1.1 52.890283747470015 -2.6703076536829067
dia-g_15-02-05_05-04-05_05-04-05_05-04-05 1.1.1 69.699441335184 -2.6708556822314264
dia-g_15-02-06_04-02-06_03-02-06_03-02-06 1.1.1 59.08253083122499 -2.752182502837824
dia-g_15-02-06_04-02-06_03-02-06_04-02-06 1.1.1 57.6436718781 -2.6660487791540968
dia-g_15-02-06_05-02-06_05-02-06_05-02-06 1.1.1 63.680291688923 -2.7169705268665703
dia-g_15-03-09_03-05-09_03-05-09_03-05-09 1.1.1 57.00511730617199 -2.743207727338312
dia-g_15-03-09_05-05-09_05-05-09_05-05-09 1.1.1 80.37059944575002 -2.758524683454692
dia-g_15-04-05_03-02-05_03-02-05_03-02-05 1.1.1 53.54532646368499 -2.674279500761002
dia-g_15-04-05_05-02-05_05-02-05_05-02-05 1.1.1 74.582911826496 -2.608338923579673
dia-g_15-05-09_03-03-09_03-03-09_03-03-09 1.1.1 56.035532417024 -2.666969373738864
dia-g_15-05-09_05-03-09_05-03-09_05-03-09 1.1.1 77.59868547412502 -2.5812128574003803
dia_30-02-06_None 2.3.2 1.9346183229674847 -6.854115567226048
dia_30-03-12_06-12-12 1.1.1 2.1633627371100004 -5.37956664629499
dma_11-02-08_11-02-08_06-10-08_06-10-08_06-10-08_06-10-08_06-10-08 9.1.1 1.0688259118723962 -8.538536867071553
dma_11-03-12_11-03-12_06-12-12_06-12-12_06-12-12_06-12-12_06-12-12 3.1.1 2.3688530435393 -5.023014053081007
dma_12-03-12_11-03-12_06-12-12_06-12-12_06-12-12_06-12-12_06-12-12 7.1.1 1.0226832373980388 -7.586471687888699
dma_12-03-12_12-03-12_06-12-12_06-12-12_06-12-12_06-12-12_06-12-12 6.1.1 1.0105140868317264 -7.757442502182033
dma_12-03-12_12-03-12_09-12-12_09-12-12_09-12-12_09-12-12_09-12-12 2.1.1 2.225564636277 -6.017983321303996
dma_15-03-09_15-03-09_05-05-09_05-05-09_05-05-09_05-05-09_05-05-09 1.1.1 56.99454820087501 -2.7410601356754287
dma_15-05-09_15-05-09_05-03-09_05-03-09_05-03-09_05-03-09_05-03-09 1.1.1 59.8371263805 -2.709344518090122
dma_17-10-08_17-10-08_01-02-08_01-02-08_01-02-08_01-02-08_01-02-08 9.1.1 1.040359436623569 -8.1166692810677
dma_17-12-12_17-12-12_02-03-12_02-03-12_02-03-12_02-03-12_02-03-12 6.1.1 0.8926536099624631 -7.669185462974929
dma_23-08-01_23-08-01_02-01-01_02-01-01_02-01-01_02-01-01_02-01-01 5.1.2 1.9845108926406 -6.542298606234538
dma_35-11-03_35-11-03_02-01-03_02-01-03_02-01-03_02-01-03_02-01-03 5.1.1 1.2888332142811998 -7.937675808243057
dmf_30-03-12_11-03-12_07-12-12_07-12-12_07-12-12 1.2.2 2.2678839926 -5.496215395991828
dmf_30-03-12_12-03-12_06-12-12_06-12-12_06-12-12 1.2.2 2.129304092267 -4.989538758867092
dmf_30-03-12_12-03-12_07-12-12_07-12-12_07-12-12 1.2.2 2.055000253176 -5.359031051693473
doh_30-03-12_30-03-12_30-03-12_30-03-12_06-12-12_06-12-12_06-12-12_06-12-12_06-12-12_06-12-12_06-12-12 1.1.1 2.40764299362 -5.186244290439161
edi-c_30-03-12_30-03-12_06-12-12_06-12-12_07-12-12 1.2.2 1.5851433832080002 -7.939036624902422
edi-c_30-03-12_30-03-12_06-12-12_07-12-12_06-12-12 2.2.2 1.89044330789325 -6.891683195714298
edi-c_30-03-12_30-03-12_07-12-12_06-12-12_06-12-12 2.2.2 1.65097658378225 -7.756999977187502
edi-c_30-03-12_30-03-12_07-12-12_06-12-12_07-12-12 2.2.2 1.87142225729625 -7.157638414351689
edi-c_30-03-12_30-03-12_07-12-12_07-12-12_06-12-12 2.2.2 1.7334057486418757 -8.160836959600354
edi-c_30-03-12_30-03-12_07-12-12_07-12-12_07-12-12 2.2.2 1.6184126813445 -8.938289634003253
edi-c_30-03-12_30-03-12_08-12-12_08-12-12_08-12-12 1.1.1 2.25039318868 -6.523301544940691
edi-c_30-03-12_30-03-12_08-12-12_08-12-12_09-12-12 1.1.1 2.218097720845 -7.0854072316608105
edi-c_30-03-12_30-03-12_09-12-12_08-12-12_08-12-12 1.1.1 2.1001256393550003 -7.231968475372676
edi-c_30-03-12_30-03-12_09-12-12_08-12-12_09-12-12 1.1.1 1.9973939095320004 -7.724898464212266
edi-c_30-03-12_30-03-12_09-12-12_09-12-12_08-12-12 1.1.1 1.9758263834800005 -8.201648730288001
eec_17-12-12_31-03-12_28-03-12_None_None 2.2.1 2.3220215133255 -5.475276171000878
eec_17-12-12_31-03-12_29-03-12_None_None 2.2.1 2.3498726283555 -5.576549392222941
eec_33-11-02_31-01-02_29-01-02_None_None 2.2.1 2.1548303571897502 -5.897445980117635
eec_34-11-10_31-06-10_28-06-10_None_None 2.2.1 2.4088993910625 -7.144602816595559
eec_34-11-10_31-06-10_29-06-10_None_None 2.2.1 2.3457497756 -6.906841022398758
eed_17-12-12_31-03-12_28-03-12_None_None 2.2.1 2.251439715651 -5.447636631503031
eed_33-11-02_31-01-02_28-01-02_None_None 2.2.1 2.2302653032117497 -6.418303479686022
eed_34-11-10_31-06-10_28-06-10_None_None 2.2.1 2.42656857975 -7.41560496139827
eed_34-11-10_31-06-10_29-06-10_None_None 2.2.1 2.397452015552 -7.162181982777539
epz_28-03-12_17-12-12_31-03-12_None_None 1.1.1 2.43364612656 -5.383574309168658
epz_29-03-12_17-12-12_31-03-12_None_None 1.1.1 2.369137418253 -5.152831847937976
eta-c_11-03-12_06-12-12_06-12-12 1.1.2 2.493972157358 -6.004213600043272
eta-c_11-03-12_06-12-12_07-12-12 1.1.2 2.494057466155 -6.15000695847238
eta-c_12-03-12_06-12-12_06-12-12 1.1.3 2.3520830515302853 -6.215528619164404
eta-c_17-12-12_01-03-12_01-03-12 1.1.2 2.864072578686 -5.31637421899448
eta-c_17-12-12_01-03-12_02-03-12 1.1.2 2.628577709282 -5.2847935269445685
eta-c_17-12-12_02-03-12_01-03-12 1.1.3 2.562700007151546 -5.70302486781398
eta-c_17-12-12_02-03-12_02-03-12 1.4.2 1.00358971442625 -10.020202015701374
etb_15-03-09_05-05-09_05-05-09 1.1.1 54.68035676647601 -2.7451511349394107
etc_15-02-05_15-02-05_05-04-05_05-04-05 1.1.1 61.105876844736 -2.6660089971706
etc_15-02-06_15-02-06_05-02-06_05-02-06 1.1.1 64.796239054586 -2.667736859831015
etc_15-03-09_15-03-09_05-05-09_05-05-09 1.1.1 63.118595596666 -2.6362038635729137
etc_15-04-05_15-04-05_05-02-05_05-02-05 1.1.1 60.982537416272 -2.674015072425325
etc_15-05-09_15-05-09_05-03-09_05-03-09 1.1.1 61.98244762638699 -2.69725201881583
etd_15-02-05_05-04-05_05-04-05_05-04-05 1.1.1 55.04021990207999 -2.569082743328795
etd_15-02-06_05-02-06_05-02-06_05-02-06 1.1.1 58.04612777751099 -2.7353542144603544
etd_15-03-09_05-05-09_05-05-09_05-05-09 1.1.1 57.0929996365 -2.649583348318152
etd_15-04-05_05-02-05_05-02-05_05-02-05 1.1.1 55.14667357535999 -2.613195591942924
etd_15-05-09_05-03-09_05-03-09_05-03-09 1.1.1 56.3451367685 -2.7241627302786084
eth_15-03-09_15-03-09_05-05-09_05-05-09_05-05-09_05-05-09 1.1.1 54.85088320350002 -2.737935376733515
eti_35-11-03_35-11-03_01-01-03_01-01-03_01-01-03_01-01-03 1.1.2 1.9219525606785004 -6.882988005891972
eti_35-11-03_35-11-03_04-01-03_04-01-03_04-01-03_04-01-03 1.1.3 1.935123154785 -7.800748265086687
etm_35-11-03_35-11-03_01-01-03_01-01-03_01-01-03_01-01-03 3.1.1 1.841629465869623 -8.296910254707845
fes_11-03-12_06-12-12_06-12-12 2.2.3 1.5947436534806023 -9.113473071695989
fes_12-03-12_06-12-12_07-12-12 2.2.3 1.2248253991266165 -9.54415988011997
fes_17-12-12_01-03-12_02-03-12 2.2.4 0.973242076460625 -9.552104943171072
fes_17-12-12_02-03-12_01-03-12 1.2.4 0.9166430645816248 -9.715774265938313
fes_18-12-12_02-03-12_02-03-12 1.1.4 0.9985175003032504 -7.235541772353911
fes_19-12-12_02-03-12_01-03-12 1.1.4 1.0278013314240002 -6.793655027381512
fes_23-12-12_01-03-12_01-03-12 2.2.3 2.1160764924359503 -7.239291284441501
fes_23-12-12_02-03-12_01-03-12 3.2.5 1.5639611636809376 -10.323668100744149
fes_23-12-12_04-03-12_03-03-12 2.1.3 2.2540720298346777 -7.215635327487261
fes_35-11-03_01-01-03_02-01-03 2.2.3 1.7768345773831655 -7.578853370541485
fes_35-11-03_02-01-03_01-01-03 2.2.3 1.394862084667564 -8.253135673369506
ffc-a_11-03-09_11-03-09_11-03-09_11-03-09_05-05-09_05-05-09_05-05-09_05-05-09_05-05-09_05-05-09_05-05-09 1.1.1 58.48722873569399 -2.717368879554899
ffc-a_11-04-05_11-04-05_11-04-05_11-04-05_05-02-05_05-02-05_05-02-05_05-02-05_05-02-05_05-02-05_05-02-05 1.1.1 58.35041755712 -2.724692685017055
ffc-a_12-03-09_12-03-09_12-03-09_12-03-09_05-05-09_05-05-09_05-05-09_05-05-09_05-05-09_05-05-09_05-05-09 1.1.1 56.63706896248 -2.702205673007615
ffc-a_13-02-05_13-02-05_13-02-05_13-02-05_03-04-05_03-04-05_03-04-05_03-04-05_03-04-05_03-04-05_03-04-05 1.1.1 61.040119848334015 -2.675770431468133
ffc-a_13-02-05_13-02-05_13-02-05_13-02-05_04-04-05_04-04-05_04-04-05_04-04-05_04-04-05_04-04-05_04-04-05 1.1.1 53.82920386993499 -2.735170253606748
ffc-a_13-02-06_13-02-06_13-02-06_13-02-06_03-02-06_03-02-06_03-02-06_03-02-06_03-02-06_03-02-06_03-02-06 1.1.1 74.504643080688 -2.6827525339989453
ffc-a_13-02-06_13-02-06_13-02-06_13-02-06_04-02-06_04-02-06_04-02-06_04-02-06_04-02-06_04-02-06_04-02-06 1.1.1 64.33666546055 -2.653345377176696
ffc-a_13-03-09_13-03-09_13-03-09_13-03-09_04-05-09_04-05-09_04-05-09_04-05-09_04-05-09_04-05-09_04-05-09 1.1.1 65.147164064619 -2.7105896609190028
ffc-a_13-04-05_13-04-05_13-04-05_13-04-05_03-02-05_03-02-05_03-02-05_03-02-05_03-02-05_03-02-05_03-02-05 1.1.1 68.108940146764 -2.703902429825911
ffc-a_13-04-05_13-04-05_13-04-05_13-04-05_04-02-05_04-02-05_04-02-05_04-02-05_04-02-05_04-02-05_04-02-05 1.1.1 61.79927420943899 -2.6668717909342288
ffc-a_13-05-09_13-05-09_13-05-09_13-05-09_03-03-09_03-03-09_03-03-09_03-03-09_03-03-09_03-03-09_03-03-09 1.1.1 68.66246331938999 -2.631419518477156
ffc-a_13-05-09_13-05-09_13-05-09_13-05-09_04-03-09_04-03-09_04-03-09_04-03-09_04-03-09_04-03-09_04-03-09 1.1.1 64.42472826439301 -2.5975780485880167
ffc-a_14-02-05_14-02-05_14-02-05_14-02-05_03-04-05_03-04-05_03-04-05_03-04-05_03-04-05_03-04-05_03-04-05 1.1.1 66.496866681175 -2.6913376987499853
ffc-a_14-02-05_14-02-05_14-02-05_14-02-05_04-04-05_04-04-05_04-04-05_04-04-05_04-04-05_04-04-05_04-04-05 1.1.1 55.461024913186 -2.57775704640016
ffc-a_14-02-06_14-02-06_14-02-06_14-02-06_03-02-06_03-02-06_03-02-06_03-02-06_03-02-06_03-02-06_03-02-06 1.1.1 57.464335953024005 -2.7505769410259657
ffc-a_14-03-09_14-03-09_14-03-09_14-03-09_03-05-09_03-05-09_03-05-09_03-05-09_03-05-09_03-05-09_03-05-09 1.1.1 69.895663815362 -2.670213732522989
ffc-a_14-03-09_14-03-09_14-03-09_14-03-09_04-05-09_04-05-09_04-05-09_04-05-09_04-05-09_04-05-09_04-05-09 1.1.1 61.92572637888 -2.7639857367131024
ffc-a_14-04-05_14-04-05_14-04-05_14-04-05_03-02-05_03-02-05_03-02-05_03-02-05_03-02-05_03-02-05_03-02-05 1.1.1 67.00093173935 -2.6481222922441
ffc-a_14-04-05_14-04-05_14-04-05_14-04-05_04-02-05_04-02-05_04-02-05_04-02-05_04-02-05_04-02-05_04-02-05 1.1.1 59.322438900446 -2.655611325277897
ffc-a_14-05-09_14-05-09_14-05-09_14-05-09_04-03-09_04-03-09_04-03-09_04-03-09_04-03-09_04-03-09_04-03-09 1.1.1 63.23734766676599 -2.6576313572345183
ffc-a_15-02-04_15-02-04_15-02-04_15-02-04_01-03-04_01-03-04_01-03-04_01-03-04_01-03-04_01-03-04_01-03-04 1.1.1 61.97574671184 -2.6258597505195573
ffc-a_15-02-04_15-02-04_15-02-04_15-02-04_04-03-04_04-03-04_04-03-04_04-03-04_04-03-04_04-03-04_04-03-04 1.1.1 73.365371493589 -2.622834422630225
ffc-a_15-02-05_15-02-05_15-02-05_15-02-05_01-04-05_01-04-05_01-04-05_01-04-05_01-04-05_01-04-05_01-04-05 1.1.1 71.36935366071502 -2.706086634694973
ffc-a_15-02-05_15-02-05_15-02-05_15-02-05_02-04-05_02-04-05_02-04-05_02-04-05_02-04-05_02-04-05_02-04-05 1.1.1 55.70295635388001 -2.6723131811357823
ffc-a_15-02-05_15-02-05_15-02-05_15-02-05_03-04-05_03-04-05_03-04-05_03-04-05_03-04-05_03-04-05_03-04-05 1.1.1 91.73772124077595 -2.6207344963483186
ffc-a_15-02-05_15-02-05_15-02-05_15-02-05_04-04-05_04-04-05_04-04-05_04-04-05_04-04-05_04-04-05_04-04-05 1.1.1 78.94230123244 -2.616357233924018
ffc-a_15-02-06_15-02-06_15-02-06_15-02-06_01-02-06_01-02-06_01-02-06_01-02-06_01-02-06_01-02-06_01-02-06 1.1.1 71.759619806204 -2.73501721585199
ffc-a_15-02-06_15-02-06_15-02-06_15-02-06_02-02-06_02-02-06_02-02-06_02-02-06_02-02-06_02-02-06_02-02-06 1.1.1 65.39495742125001 -2.6829760419870743
ffc-a_15-02-06_15-02-06_15-02-06_15-02-06_03-02-06_03-02-06_03-02-06_03-02-06_03-02-06_03-02-06_03-02-06 1.1.1 90.924272030275 -2.643940550090697
ffc-a_15-02-06_15-02-06_15-02-06_15-02-06_04-02-06_04-02-06_04-02-06_04-02-06_04-02-06_04-02-06_04-02-06 1.1.1 81.820283109286 -2.5917055079417555
ffc-a_15-03-09_15-03-09_15-03-09_15-03-09_02-05-09_02-05-09_02-05-09_02-05-09_02-05-09_02-05-09_02-05-09 1.1.1 71.04138396746602 -2.6528012323771533
ffc-a_15-03-09_15-03-09_15-03-09_15-03-09_03-05-09_03-05-09_03-05-09_03-05-09_03-05-09_03-05-09_03-05-09 1.1.1 105.224880979148 -2.654888608863656
ffc-a_15-04-05_15-04-05_15-04-05_15-04-05_01-02-05_01-02-05_01-02-05_01-02-05_01-02-05_01-02-05_01-02-05 1.1.1 77.69020543251 -2.695738568952128
ffc-a_15-04-05_15-04-05_15-04-05_15-04-05_02-02-05_02-02-05_02-02-05_02-02-05_02-02-05_02-02-05_02-02-05 1.1.1 67.64873742866001 -2.6504542751590745
ffc-a_15-04-05_15-04-05_15-04-05_15-04-05_03-02-05_03-02-05_03-02-05_03-02-05_03-02-05_03-02-05_03-02-05 1.1.1 101.32504827365698 -2.6294070679248502
ffc-a_15-04-05_15-04-05_15-04-05_15-04-05_04-02-05_04-02-05_04-02-05_04-02-05_04-02-05_04-02-05_04-02-05 1.1.1 91.44781674474 -2.621452680521703
ffc-a_15-05-09_15-05-09_15-05-09_15-05-09_01-03-09_01-03-09_01-03-09_01-03-09_01-03-09_01-03-09_01-03-09 1.1.1 81.6954066041 -2.7296071912162048
ffc-a_15-05-09_15-05-09_15-05-09_15-05-09_03-03-09_03-03-09_03-03-09_03-03-09_03-03-09_03-03-09_03-03-09 1.1.1 103.618154985331 -2.6541452946654416
ffc-a_15-05-09_15-05-09_15-05-09_15-05-09_04-03-09_04-03-09_04-03-09_04-03-09_04-03-09_04-03-09_04-03-09 1.1.1 95.744620782673 -2.628053949913587
ffc-a_16-02-05_16-02-05_16-02-05_16-02-05_05-04-05_05-04-05_05-04-05_05-04-05_05-04-05_05-04-05_05-04-05 1.1.1 79.92047216184001 -2.6188496578429774
ffc-a_16-02-06_16-02-06_16-02-06_16-02-06_03-02-06_03-02-06_03-02-06_03-02-06_03-02-06_03-02-06_03-02-06 1.1.1 59.70250288688399 -2.7110900857586357
ffc-a_16-03-09_16-03-09_16-03-09_16-03-09_05-05-09_05-05-09_05-05-09_05-05-09_05-05-09_05-05-09_05-05-09 1.1.1 85.49645102397999 -2.661158020409848
ffc-a_16-04-05_16-04-05_16-04-05_16-04-05_05-02-05_05-02-05_05-02-05_05-02-05_05-02-05_05-02-05_05-02-05 1.1.1 77.78626536022401 -2.665296098042881
ffc-a_16-05-09_16-05-09_16-05-09_16-05-09_03-03-09_03-03-09_03-03-09_03-03-09_03-03-09_03-03-09_03-03-09 1.1.1 55.09317051441501 -2.663031885279109
ffc-a_16-05-09_16-05-09_16-05-09_16-05-09_05-03-09_05-03-09_05-03-09_05-03-09_05-03-09_05-03-09_05-03-09 1.1.1 81.481062527503 -2.6761419466835163
ffc-a_19-08-01_19-08-01_19-08-01_19-08-01_05-01-01_05-01-01_05-01-01_05-01-01_05-01-01_05-01-01_05-01-01 1.1.1 61.08940853409598 -2.68547761014301
ffc-a_19-10-08_19-10-08_19-10-08_19-10-08_05-02-08_05-02-08_05-02-08_05-02-08_05-02-08_05-02-08_05-02-08 1.1.1 61.805931391882 -2.701810193649374
ffc-a_19-12-12_19-12-12_19-12-12_19-12-12_05-03-12_05-03-12_05-03-12_05-03-12_05-03-12_05-03-12_05-03-12 1.1.1 58.438367401536 -2.7046431039892647
ffc-a_20-10-08_20-10-08_20-10-08_20-10-08_05-02-08_05-02-08_05-02-08_05-02-08_05-02-08_05-02-08_05-02-08 1.1.1 70.992770068827 -2.6796240644671387
ffc-a_20-12-12_20-12-12_20-12-12_20-12-12_05-03-12_05-03-12_05-03-12_05-03-12_05-03-12_05-03-12_05-03-12 1.1.1 71.77126729075201 -2.677406366537745
ffc-a_21-08-01_21-08-01_21-08-01_21-08-01_05-01-01_05-01-01_05-01-01_05-01-01_05-01-01_05-01-01_05-01-01 1.1.1 60.87966038435201 -2.589238346805585
ffc-a_21-12-12_21-12-12_21-12-12_21-12-12_05-03-12_05-03-12_05-03-12_05-03-12_05-03-12_05-03-12_05-03-12 1.1.1 60.188715175272 -2.670968473915406
ffc-a_32-02-04_32-02-04_32-02-04_32-02-04_05-03-04_05-03-04_05-03-04_05-03-04_05-03-04_05-03-04_05-03-04 1.1.1 73.578982694552 -2.728063474556046
ffc-a_32-02-05_32-02-05_32-02-05_32-02-05_03-04-05_03-04-05_03-04-05_03-04-05_03-04-05_03-04-05_03-04-05 1.1.1 51.30164707413499 -2.6663777667590867
ffc-a_32-02-06_32-02-06_32-02-06_32-02-06_03-02-06_03-02-06_03-02-06_03-02-06_03-02-06_03-02-06_03-02-06 1.1.1 56.591020546041 -2.7104987087528936
ffc-a_32-02-06_32-02-06_32-02-06_32-02-06_04-02-06_04-02-06_04-02-06_04-02-06_04-02-06_04-02-06_04-02-06 1.1.1 59.69951275988501 -2.726815554085852
ffc-a_32-03-09_32-03-09_32-03-09_32-03-09_03-05-09_03-05-09_03-05-09_03-05-09_03-05-09_03-05-09_03-05-09 1.1.1 53.66401144644602 -2.648016119221716
ffc-a_32-03-09_32-03-09_32-03-09_32-03-09_04-05-09_04-05-09_04-05-09_04-05-09_04-05-09_04-05-09_04-05-09 1.1.1 62.107922392320006 -2.63180458979105
ffc-a_32-04-05_32-04-05_32-04-05_32-04-05_04-02-05_04-02-05_04-02-05_04-02-05_04-02-05_04-02-05_04-02-05 1.1.1 52.35522721755 -2.798490897641204
ffc-a_32-05-09_32-05-09_32-05-09_32-05-09_03-03-09_03-03-09_03-03-09_03-03-09_03-03-09_03-03-09_03-03-09 1.1.1 63.708961731849016 -2.6965034882831045
ffc_31-03-12_31-03-12_17-12-12_None_None 1.1.2 2.3961638820845 -5.427587438137421
ffc_31-06-10_31-06-10_34-11-10_None_None 2.2.3 2.199871326481749 -6.575447361410152
ffd_28-06-10_31-06-10_34-11-10_34-11-10_None_None_None_None 1.1.2 2.519292451558 -7.178918186034491
ffi-a_11-04-05_11-04-05_11-04-05_11-04-05_11-04-05_01-02-05_01-02-05_01-02-05_01-02-05_01-02-05_01-02-05_01-02-05_01-02-05 1.1.1 51.146624114558 -2.6852112399818595
fjh_12-03-12_25-12-12_25-12-12_None_None 1.1.1 2.295681796953 -4.985630093906933
fjh_17-10-08_31-02-08_31-02-08_None_None 1.1.2 2.33451112 -6.1039782405173
fjh_17-12-12_31-03-12_31-03-12_None_None 1.1.2 2.0247939611359995 -5.976948732647493
fjh_33-11-02_31-01-02_31-01-02_None_None 1.1.2 2.0725885828175 -7.5529592058866735
fmj_17-12-12_17-12-12_31-03-12_31-03-12_31-03-12_None_None_None_None 1.1.1 2.276710499525 -5.723076607808146
fmj_33-11-02_33-11-02_31-01-02_31-01-02_31-01-02_None_None_None_None 2.2.1 2.295437286 -6.374444192719498
fmj_34-11-10_34-11-10_31-06-10_31-06-10_31-06-10_None_None_None_None 2.2.1 2.440411717072 -7.14914311667107
fss_12-03-12_12-03-12_12-03-12_12-03-12_06-12-12_06-12-12_06-12-12_06-12-12_06-12-12 1.1.3 1.044979481378396 -7.616810185807403
fss_12-03-12_12-03-12_12-03-12_12-03-12_10-12-12_10-12-12_10-12-12_10-12-12_10-12-12 1.1.3 1.2840719024224592 -6.328056272144727
fss_17-10-08_17-10-08_17-10-08_17-10-08_01-02-08_01-02-08_01-02-08_01-02-08_01-02-08 1.1.4 1.07958416393375 -8.780707757526288
fss_17-12-12_17-12-12_17-12-12_17-12-12_02-03-12_02-03-12_02-03-12_02-03-12_02-03-12 1.1.3 0.9587607854465486 -8.9541669129044
fss_18-12-12_18-12-12_18-12-12_18-12-12_02-03-12_02-03-12_02-03-12_02-03-12_02-03-12 1.1.4 1.004009108315 -6.968872976193689
fss_35-11-03_35-11-03_35-11-03_35-11-03_02-01-03_02-01-03_02-01-03_02-01-03_02-01-03 1.1.3 1.496349437344139 -9.059285537496995
fsv_11-02-08_11-02-08_11-02-08_11-02-08_11-02-08_06-10-08_06-10-08_06-10-08_06-10-08_06-10-08_06-10-08_06-10-08_06-10-08 1.1.4 0.98801340982025 -8.398085386676103
fsv_11-03-09_11-03-09_11-03-09_11-03-09_11-03-09_01-05-09_01-05-09_01-05-09_01-05-09_01-05-09_01-05-09_01-05-09_01-05-09 1.1.4 1.20690149237 -7.079582680049455
fsv_12-03-09_12-03-09_12-03-09_12-03-09_12-03-09_02-05-09_02-05-09_02-05-09_02-05-09_02-05-09_02-05-09_02-05-09_02-05-09 1.1.4 1.05697223273475 -6.757018658508955
fsv_12-03-12_12-03-12_12-03-12_12-03-12_12-03-12_06-12-12_06-12-12_06-12-12_06-12-12_06-12-12_06-12-12_06-12-12_06-12-12 1.1.3 0.884610184982396 -9.576809052544885
fsv_12-03-12_12-03-12_12-03-12_12-03-12_12-03-12_10-12-12_10-12-12_10-12-12_10-12-12_10-12-12_10-12-12_10-12-12_10-12-12 1.1.3 1.294059891296926 -6.966870919515462
fsv_23-10-08_23-10-08_23-10-08_23-10-08_23-10-08_01-02-08_01-02-08_01-02-08_01-02-08_01-02-08_01-02-08_01-02-08_01-02-08 1.1.3 2.150627129527501 -7.178331745822417
fsv_23-12-12_23-12-12_23-12-12_23-12-12_23-12-12_01-03-12_01-03-12_01-03-12_01-03-12_01-03-12_01-03-12_01-03-12_01-03-12 1.1.3 2.156105380716021 -7.133636320634315
fsv_23-12-12_23-12-12_23-12-12_23-12-12_23-12-12_03-03-12_03-03-12_03-03-12_03-03-12_03-03-12_03-03-12_03-03-12_03-03-12 1.1.3 2.086682646615 -7.215608260194757
fsv_23-12-12_23-12-12_23-12-12_23-12-12_23-12-12_04-03-12_04-03-12_04-03-12_04-03-12_04-03-12_04-03-12_04-03-12_04-03-12 1.1.3 2.3329062506788323 -6.3911131222212125
fsv_35-11-03_35-11-03_35-11-03_35-11-03_35-11-03_01-01-03_01-01-03_01-01-03_01-01-03_01-01-03_01-01-03_01-01-03_01-01-03 1.2.3 1.7294715703469998 -9.585495813270738
fsz-a_35-11-03_35-11-03_35-11-03_35-11-03_35-11-03_01-01-03_01-01-03_01-01-03_01-01-03_01-01-03_01-01-03_01-01-03_01-01-03 1.1.3 1.7557360526505474 -8.056308928311928
ftd_30-03-12_30-03-12_06-12-12_06-12-12_06-12-12_06-12-12_06-12-12_06-12-12_06-12-12 1.1.1 2.41844996815 -5.024477093051291
ftf_30-03-12_30-03-12_06-12-12_06-12-12_06-12-12_06-12-12_06-12-12_06-12-12_06-12-12 1.1.1 2.433597226617 -4.900132907385895
fuy_30-03-12_30-03-12_06-12-12_06-12-12_06-12-12_06-12-12_06-12-12 1.1.1 2.396549949454 -5.432344226928741
fve_30-03-12_30-03-12_06-12-12_06-12-12_06-12-12_06-12-12_06-12-12_06-12-12 1.1.1 2.4951155291 -5.2351638587671525
fvk_30-03-12_30-03-12_06-12-12_06-12-12_06-12-12_06-12-12_06-12-12 1.1.1 2.333606746319 -5.2203236880429085
fvn_30-03-12_30-03-12_06-12-12_06-12-12_06-12-12_06-12-12_06-12-12 1.1.2 2.4349601674675 -5.601574182356779
fvu_30-03-12_30-03-12_06-12-12_06-12-12_06-12-12_06-12-12_06-12-12 1.1.2 2.2514584361985 -5.014057449055295
fvv_30-03-12_30-03-12_06-12-12_06-12-12_06-12-12_06-12-12_06-12-12_06-12-12 1.1.1 2.2678137528099995 -5.5032421209543925
fvw_30-03-12_30-03-12_06-12-12_06-12-12_06-12-12_06-12-12_06-12-12_06-12-12 1.1.1 2.234731404726 -5.252291858717824
fwa_31-02-08_31-02-08_31-02-08_07-10-08_06-10-08_06-10-08 2.1.4 1.695767008299 -9.385526436548792
fwd_31-03-09_31-03-09_31-03-09_01-05-09_01-05-09_01-05-09_01-05-09_01-05-09 1.1.3 1.7895923428894978 -7.825139283705652
fwd_31-03-09_31-03-09_31-03-09_03-05-09_03-05-09_03-05-09_03-05-09_03-05-09 1.1.3 1.8912562619324111 -7.474904837376121
fwe_31-02-08_31-02-08_06-10-08_06-10-08_07-10-08 1.1.3 1.7210890324274135 -9.288232031875264
fwe_31-02-08_31-02-08_06-10-08_07-10-08_06-10-08 1.1.3 1.8423370577556897 -9.651966175207365
fwe_31-03-09_31-03-09_01-05-09_01-05-09_01-05-09 1.1.3 1.6044304798274651 -7.577807767432776
fwe_31-03-12_31-03-12_06-12-12_06-12-12_07-12-12 1.1.3 1.2986036708555957 -9.401057107268464
fxt_11-03-12_06-12-12_06-12-12_06-12-12 1.2.4 1.5881724053459998 -8.866580557202685
fxt_23-12-12_02-03-12_02-03-12_02-03-12 1.1.4 1.4742192080025 -7.993374256345194
fxt_35-11-03_01-01-03_02-01-03_02-01-03 1.1.3 1.6966022754303574 -8.111403773278877
fxt_35-11-03_02-01-03_01-01-03_02-01-03 1.1.3 1.7316298047589291 -8.068448746451217
fxt_35-11-03_02-01-03_02-01-03_01-01-03 1.1.3 1.655612472879911 -8.378876775996396
gee_31-03-12_17-12-12_31-03-12_None_None 1.1.1 2.25502754334 -6.250629375459289
gsi_30-02-06_None_None 2.2.2 1.9526077508437507 -6.537314959526497
gsi_30-03-12_06-12-12_06-12-12 1.1.1 2.067461090928 -5.963323829654779
gsi_30-03-12_06-12-12_07-12-12 1.1.1 1.9604189392200004 -5.627505745187792
gsi_30-03-12_07-12-12_06-12-12 1.1.1 2.07355441105 -5.671014911945398
gsi_30-03-12_07-12-12_07-12-12 1.1.1 1.857028705224 -6.434452343002977
gsi_30-03-12_08-12-12_08-12-12 1.1.1 2.4327739561320003 -5.32044407183598
gsi_30-03-12_08-12-12_09-12-12 1.1.1 2.236925486432 -6.48470315553119
gwg-a_13-02-05_13-02-05_13-02-05_13-02-05_13-02-05_05-04-05_05-04-05_05-04-05_05-04-05_05-04-05_05-04-05_05-04-05_05-04-05 1.1.1 63.40174897408 -2.705973900416742
gwg-a_13-02-06_13-02-06_13-02-06_13-02-06_13-02-06_05-02-06_05-02-06_05-02-06_05-02-06_05-02-06_05-02-06_05-02-06_05-02-06 1.1.1 66.36492190492599 -2.6207615181646258
gwg-a_13-03-09_13-03-09_13-03-09_13-03-09_13-03-09_05-05-09_05-05-09_05-05-09_05-05-09_05-05-09_05-05-09_05-05-09_05-05-09 1.1.1 66.18928952728801 -2.692034761518512
gwg-a_13-04-05_13-04-05_13-04-05_13-04-05_13-04-05_05-02-05_05-02-05_05-02-05_05-02-05_05-02-05_05-02-05_05-02-05_05-02-05 1.1.1 65.24697250944 -2.683574391521166
gwg-a_14-02-05_14-02-05_14-02-05_14-02-05_14-02-05_05-04-05_05-04-05_05-04-05_05-04-05_05-04-05_05-04-05_05-04-05_05-04-05 1.1.1 57.354318236091 -2.61819140482283
gwg-a_14-02-06_14-02-06_14-02-06_14-02-06_14-02-06_05-02-06_05-02-06_05-02-06_05-02-06_05-02-06_05-02-06_05-02-06_05-02-06 1.1.1 62.132801335 -2.611812187358483
gwg-a_14-03-09_14-03-09_14-03-09_14-03-09_14-03-09_05-05-09_05-05-09_05-05-09_05-05-09_05-05-09_05-05-09_05-05-09_05-05-09 1.1.1 64.36410618880001 -2.737258358495688
gwg-a_14-04-05_14-04-05_14-04-05_14-04-05_14-04-05_05-02-05_05-02-05_05-02-05_05-02-05_05-02-05_05-02-05_05-02-05_05-02-05 1.1.1 62.77984715025199 -2.6645690710534327
gwg-a_14-05-09_14-05-09_14-05-09_14-05-09_14-05-09_05-03-09_05-03-09_05-03-09_05-03-09_05-03-09_05-03-09_05-03-09_05-03-09 1.1.1 66.20980008448 -2.729190612241541
gwg-a_15-02-04_15-02-04_15-02-04_15-02-04_15-02-04_05-03-04_05-03-04_05-03-04_05-03-04_05-03-04_05-03-04_05-03-04_05-03-04 1.1.1 73.363465547688 -2.616167925205392
gwg-a_15-02-05_15-02-05_15-02-05_15-02-05_15-02-05_03-04-05_03-04-05_03-04-05_03-04-05_03-04-05_03-04-05_03-04-05_03-04-05 1.1.1 67.11692074700001 -2.6234978628278487
gwg-a_15-02-05_15-02-05_15-02-05_15-02-05_15-02-05_05-04-05_05-04-05_05-04-05_05-04-05_05-04-05_05-04-05_05-04-05_05-04-05 1.1.1 81.233990611026 -2.709172160834867
gwg-a_15-02-06_15-02-06_15-02-06_15-02-06_15-02-06_03-02-06_03-02-06_03-02-06_03-02-06_03-02-06_03-02-06_03-02-06_03-02-06 1.1.1 70.74280376097 -2.569114630322789
gwg-a_15-02-06_15-02-06_15-02-06_15-02-06_15-02-06_05-02-06_05-02-06_05-02-06_05-02-06_05-02-06_05-02-06_05-02-06_05-02-06 1.1.1 90.026883465535 -2.6340561324226885
gwg-a_15-03-09_15-03-09_15-03-09_15-03-09_15-03-09_03-05-09_03-05-09_03-05-09_03-05-09_03-05-09_03-05-09_03-05-09_03-05-09 1.1.1 69.499968194305 -2.684384769179531
gwg-a_15-03-09_15-03-09_15-03-09_15-03-09_15-03-09_04-05-09_04-05-09_04-05-09_04-05-09_04-05-09_04-05-09_04-05-09_04-05-09 1.1.1 62.51626311337 -2.68173677150752
gwg-a_15-03-09_15-03-09_15-03-09_15-03-09_15-03-09_05-05-09_05-05-09_05-05-09_05-05-09_05-05-09_05-05-09_05-05-09_05-05-09 1.1.1 90.44797798349998 -2.6928194492206323
gwg-a_15-04-05_15-04-05_15-04-05_15-04-05_15-04-05_03-02-05_03-02-05_03-02-05_03-02-05_03-02-05_03-02-05_03-02-05_03-02-05 1.1.1 67.025383710924 -2.619411836738819
gwg-a_15-04-05_15-04-05_15-04-05_15-04-05_15-04-05_04-02-05_04-02-05_04-02-05_04-02-05_04-02-05_04-02-05_04-02-05_04-02-05 1.1.1 59.451945021288005 -2.684651796223608
gwg-a_15-04-05_15-04-05_15-04-05_15-04-05_15-04-05_05-02-05_05-02-05_05-02-05_05-02-05_05-02-05_05-02-05_05-02-05_05-02-05 1.1.1 90.522771072459 -2.73240615018027
gwg-a_15-05-09_15-05-09_15-05-09_15-05-09_15-05-09_03-03-09_03-03-09_03-03-09_03-03-09_03-03-09_03-03-09_03-03-09_03-03-09 1.1.1 68.12682635085001 -2.6336834079133404
gwg-a_15-05-09_15-05-09_15-05-09_15-05-09_15-05-09_04-03-09_04-03-09_04-03-09_04-03-09_04-03-09_04-03-09_04-03-09_04-03-09 1.1.1 62.43245583861 -2.7011470479874773
gwg-a_15-05-09_15-05-09_15-05-09_15-05-09_15-05-09_05-03-09_05-03-09_05-03-09_05-03-09_05-03-09_05-03-09_05-03-09_05-03-09 1.1.1 90.8229399372 -2.6686026015250026
gwg-a_16-03-09_16-03-09_16-03-09_16-03-09_16-03-09_05-05-09_05-05-09_05-05-09_05-05-09_05-05-09_05-05-09_05-05-09_05-05-09 1.1.1 55.746455677836 -2.6869472811328063
gwg-a_16-04-05_16-04-05_16-04-05_16-04-05_16-04-05_05-02-05_05-02-05_05-02-05_05-02-05_05-02-05_05-02-05_05-02-05_05-02-05 1.1.1 54.656320949544 -2.724878330954648
gwg-a_16-05-09_16-05-09_16-05-09_16-05-09_16-05-09_05-03-09_05-03-09_05-03-09_05-03-09_05-03-09_05-03-09_05-03-09_05-03-09 1.1.1 54.871053435198 -2.632628781917751
gwg-a_32-03-09_32-03-09_32-03-09_32-03-09_32-03-09_05-05-09_05-05-09_05-05-09_05-05-09_05-05-09_05-05-09_05-05-09_05-05-09 1.1.1 60.538158322852006 -2.7270706609083777
gwg-a_32-04-05_32-04-05_32-04-05_32-04-05_32-04-05_05-02-05_05-02-05_05-02-05_05-02-05_05-02-05_05-02-05_05-02-05_05-02-05 1.1.1 57.297614545062 -2.77283354339014
hbt_25-12-12_17-12-12_25-12-12_03-03-12_03-03-12_03-03-12 1.3.6 0.8915638233173402 -8.402134338852015
hbt_25-12-12_20-12-12_25-12-12_01-03-12_01-03-12_01-03-12 1.3.6 0.8862332900051849 -8.647308002260148
hbt_25-12-12_23-12-12_25-12-12_04-03-12_04-03-12_04-03-12 1.1.4 1.60125490555725 -7.828287514180065
hbt_31-03-09_14-05-09_31-03-09_None_None_None 1.1.3 1.719134367878953 -7.678343495630879
hbt_31-03-12_12-03-12_31-03-12_10-12-12_10-12-12_10-12-12 1.1.4 1.31690494310525 -7.523522000956727
hbt_31-03-12_14-03-12_31-03-12_06-12-12_06-12-12_06-12-12 1.1.3 1.3034718182927656 -6.532717919696004
hbt_31-05-09_12-03-09_31-05-09_None_None_None 1.1.3 1.529141589722766 -9.067379097669685
hbt_31-05-09_32-03-09_31-05-09_None_None_None 1.1.3 1.5735651525223573 -7.780283888423274
hca_23-12-12_01-03-12_01-03-12 1.1.3 2.5109075865119714 -6.404999118900991
hcb_11-02-05_01-04-05 2.2.5 1.2006043333325995 -6.907012160862102
hcb_11-03-12_06-12-12 2.2.4 0.9679650580656248 -7.111560027525208
hcb_11-04-05_01-02-05 2.2.5 1.26852173175105 -6.579168832124234
hcb_11-04-05_02-02-05 2.2.5 0.9377618281459996 -7.240581589006056
hcb_11-04-05_04-02-05 2.2.5 1.12173127711425 -6.720504301331631
hcb_11-05-09_01-03-09 2.2.5 1.14115649943295 -6.789520267123896
hcb_12-01-01_06-08-01 2.2.5 0.79866645241985 -8.057060975435927
hcb_12-03-09_02-05-09 2.2.4 1.0313718086726251 -6.6342062699045234
hcb_12-03-12_06-12-12 2.2.3 0.9908196399706908 -7.562087872967568
hcb_12-03-12_10-12-12 2.2.4 1.223267725912375 -6.628640598490857
hcb_17-10-08_01-02-08 2.2.4 1.04130458691475 -7.94794203553523
hcb_19-12-12_02-03-12 3.2.5 1.1146338495358763 -7.735676089840994
hcb_20-12-12_02-03-12 1.2.5 1.1586828036402 -7.306089374525258
hcb_35-11-03_01-01-03 2.2.2 1.910782948554 -6.547335742990533
hha_15-02-05_15-02-05_15-02-05_15-02-05_03-04-05_03-04-05_03-04-05_03-04-05_03-04-05_03-04-05_03-04-05 1.1.1 54.812919942916 -2.6637194372042288
hha_15-02-06_15-02-06_15-02-06_15-02-06_03-02-06_03-02-06_03-02-06_03-02-06_03-02-06_03-02-06_03-02-06 1.1.1 58.77878893999201 -2.708654744178333
hha_15-04-05_15-04-05_15-04-05_15-04-05_03-02-05_03-02-05_03-02-05_03-02-05_03-02-05_03-02-05_03-02-05 1.1.1 54.300967838916 -2.726839445156123
hha_15-05-09_15-05-09_15-05-09_15-05-09_03-03-09_03-03-09_03-03-09_03-03-09_03-03-09_03-03-09_03-03-09 1.1.1 56.101044836745 -2.696063725207753
hna_11-03-12_11-03-12_06-12-12_06-12-12_06-12-12 1.1.4 1.059044458977 -7.697133317526884
hna_12-02-05_11-02-05_01-04-05_01-04-05_01-04-05 1.1.5 1.2450399016812002 -6.915427933404275
hna_12-03-09_12-03-09_02-05-09_02-05-09_02-05-09 1.1.4 1.234100770064 -8.218599120442114
hna_12-03-12_11-03-12_06-12-12_06-12-12_06-12-12 1.1.4 1.0795946216467502 -7.821370462420782
hna_12-03-12_12-03-12_06-12-12_06-12-12_06-12-12 1.1.3 1.0635016407836786 -7.9299637977597985
hna_17-12-12_17-12-12_02-03-12_02-03-12_02-03-12 1.1.3 0.962410465303929 -8.524777179068623
hna_18-12-12_23-12-12_01-03-12_01-03-12_01-03-12 1.1.4 1.891107446121 -7.677476145701821
hna_18-12-12_23-12-12_03-03-12_03-03-12_03-03-12 1.1.3 1.8884071852224664 -6.478436570496132
hna_18-12-12_23-12-12_04-03-12_04-03-12_04-03-12 1.1.4 1.90992052872 -7.875890861372656
hna_23-12-12_18-12-12_01-03-12_01-03-12_01-03-12 1.1.4 1.6591041441039998 -7.362319207827067
hna_23-12-12_18-12-12_03-03-12_03-03-12_03-03-12 1.1.4 1.6583234387325 -7.267374124791406
hna_35-11-03_35-11-03_01-01-03_02-01-03_01-01-03 1.1.3 1.5187662297025109 -8.95696726702883
hna_35-11-03_35-11-03_02-01-03_01-01-03_01-01-03 1.1.3 1.4150359136303496 -8.436731015279744
hna_35-11-03_35-11-03_02-01-03_01-01-03_02-01-03 2.1.3 1.5773862665755476 -8.906074822898617
hna_35-11-03_35-11-03_02-01-03_02-01-03_01-01-03 1.1.3 1.3676031484787023 -8.968149857294009
hnb_11-03-12_11-03-12_06-12-12_07-12-12 2.2.3 1.507604700944573 -8.532186388494194
hnb_11-03-12_12-03-12_06-12-12_06-12-12 1.2.3 1.2216985507675 -7.270048762238426
hnb_12-03-12_12-03-12_06-12-12_06-12-12 1.1.3 1.2613842225083451 -7.539174281484176
hnb_17-12-12_17-12-12_02-03-12_02-03-12 2.2.4 0.92157548685725 -8.105666836401324
hnb_18-12-12_23-12-12_02-03-12_02-03-12 2.1.3 1.6235477937716096 -7.181218729912716
hnb_18-12-12_23-12-12_04-03-12_04-03-12 1.1.4 1.9434633020839995 -8.223260946510662
hnb_23-12-12_23-12-12_01-03-12_01-03-12 2.2.3 2.3558863518719573 -5.949895095421264
hnb_35-11-03_35-11-03_02-01-03_02-01-03 2.2.3 1.533560467368263 -8.207132023412651
hnc_11-03-12_11-03-12_11-03-12_11-03-12_06-12-12_06-12-12_06-12-12_06-12-12_06-12-12_06-12-12_06-12-12 1.1.3 1.316379882018459 -8.287972060192413
hnc_11-04-05_11-04-05_11-04-05_11-04-05_02-02-05_02-02-05_02-02-05_02-02-05_02-02-05_02-02-05_02-02-05 1.1.4 1.2145506346215 -6.429359777991081
hnc_12-02-05_12-02-05_12-02-05_12-02-05_01-04-05_01-04-05_01-04-05_01-04-05_01-04-05_01-04-05_01-04-05 1.1.5 1.153241178908 -6.567382062932878
hnc_12-03-12_12-03-12_12-03-12_12-03-12_06-12-12_06-12-12_06-12-12_06-12-12_06-12-12_06-12-12_06-12-12 1.1.3 1.042869359057396 -7.789703758076373
hnc_17-12-12_17-12-12_17-12-12_17-12-12_02-03-12_02-03-12_02-03-12_02-03-12_02-03-12_02-03-12_02-03-12 1.1.4 0.7588898346415001 -9.332162062714133
hnc_18-12-12_18-12-12_18-12-12_18-12-12_02-03-12_02-03-12_02-03-12_02-03-12_02-03-12_02-03-12_02-03-12 1.1.4 0.9833558888455 -7.410750575921404
hnc_23-12-12_23-12-12_23-12-12_23-12-12_01-03-12_01-03-12_01-03-12_01-03-12_01-03-12_01-03-12_01-03-12 1.1.3 2.173026741547494 -7.238793461693054
hnc_35-11-03_35-11-03_35-11-03_35-11-03_01-01-03_01-01-03_01-01-03_01-01-03_01-01-03_01-01-03_01-01-03 1.1.3 1.523916034702098 -8.314120750741731
hnc_35-11-03_35-11-03_35-11-03_35-11-03_02-01-03_02-01-03_02-01-03_02-01-03_02-01-03_02-01-03_02-01-03 1.1.3 1.503995530607304 -9.28474362008098
hnd_11-03-09_11-03-09_11-03-09_11-03-09_11-03-09_11-03-09_02-05-09_02-05-09_02-05-09_02-05-09_02-05-09_02-05-09_02-05-09_02-05-09_02-05-09_02-05-09 1.1.5 1.0928023512128002 -7.285262543380731
hnd_12-02-05_12-02-05_12-02-05_12-02-05_12-02-05_12-02-05_01-04-05_01-04-05_01-04-05_01-04-05_01-04-05_01-04-05_01-04-05_01-04-05_01-04-05_01-04-05 1.1.5 1.133915715175 -6.733093498792591
hnd_12-03-12_12-03-12_12-03-12_12-03-12_12-03-12_12-03-12_06-12-12_06-12-12_06-12-12_06-12-12_06-12-12_06-12-12_06-12-12_06-12-12_06-12-12_06-12-12 1.1.3 1.0288018410173574 -7.750341311811365
hnd_12-03-12_12-03-12_12-03-12_12-03-12_12-03-12_12-03-12_10-12-12_10-12-12_10-12-12_10-12-12_10-12-12_10-12-12_10-12-12_10-12-12_10-12-12_10-12-12 1.1.3 1.275427307721042 -6.558423081322582
hnd_16-03-12_16-03-12_16-03-12_16-03-12_16-03-12_16-03-12_06-12-12_06-12-12_06-12-12_06-12-12_06-12-12_06-12-12_06-12-12_06-12-12_06-12-12_06-12-12 2.1.5 1.1338453998828 -8.274799046394808
hnd_23-12-12_23-12-12_23-12-12_23-12-12_23-12-12_23-12-12_01-03-12_01-03-12_01-03-12_01-03-12_01-03-12_01-03-12_01-03-12_01-03-12_01-03-12_01-03-12 1.1.3 2.1479783262249845 -7.093762861312848
hnd_23-12-12_23-12-12_23-12-12_23-12-12_23-12-12_23-12-12_03-03-12_03-03-12_03-03-12_03-03-12_03-03-12_03-03-12_03-03-12_03-03-12_03-03-12_03-03-12 1.1.3 2.717415534279976 -5.881666826366614
hnd_23-12-12_23-12-12_23-12-12_23-12-12_23-12-12_23-12-12_04-03-12_04-03-12_04-03-12_04-03-12_04-03-12_04-03-12_04-03-12_04-03-12_04-03-12_04-03-12 1.1.3 2.408692760081663 -6.561251353661776
hnd_35-11-03_35-11-03_35-11-03_35-11-03_35-11-03_35-11-03_01-01-03_01-01-03_01-01-03_01-01-03_01-01-03_01-01-03_01-01-03_01-01-03_01-01-03_01-01-03 1.1.2 1.979012827268 -6.499963831484949
hnd_35-11-03_35-11-03_35-11-03_35-11-03_35-11-03_35-11-03_02-01-03_02-01-03_02-01-03_02-01-03_02-01-03_02-01-03_02-01-03_02-01-03_02-01-03_02-01-03 1.1.3 1.5006822591322786 -9.577369907895353
hne_11-03-12_11-03-12_11-03-12_06-12-12_06-12-12_06-12-12_06-12-12_06-12-12 1.1.4 1.00759051188225 -7.773186623031425
hne_17-10-08_17-10-08_17-10-08_01-02-08_01-02-08_01-02-08_01-02-08_01-02-08 1.1.4 1.0970976961412502 -8.6143202028958
hne_17-12-12_17-12-12_17-12-12_02-03-12_02-03-12_02-03-12_02-03-12_02-03-12 1.2.4 0.72433850080625 -10.169982033013811
hne_23-12-12_23-12-12_23-12-12_03-03-12_03-03-12_03-03-12_03-03-12_03-03-12 1.1.3 2.6200723910785717 -6.104350322019207
hne_23-12-12_23-12-12_23-12-12_04-03-12_04-03-12_04-03-12_04-03-12_04-03-12 1.1.3 1.88724866203 -7.076931739917016
hnf_11-02-05_11-02-05_11-02-05_11-02-05_01-04-05_01-04-05_01-04-05_01-04-05 1.1.5 1.2389969646760002 -7.569221510754391
hnf_11-03-12_11-03-12_11-03-12_11-03-12_06-12-12_06-12-12_06-12-12_06-12-12 1.1.4 1.025924676939 -7.644318376616906
hnf_12-03-12_12-03-12_12-03-12_12-03-12_06-12-12_06-12-12_06-12-12_06-12-12 1.1.3 1.033178442132738 -7.495450963259369
hnf_12-03-12_12-03-12_12-03-12_12-03-12_10-12-12_10-12-12_10-12-12_10-12-12 1.1.3 1.2721563658717476 -6.484161256755323
hnf_17-10-08_17-10-08_17-10-08_17-10-08_01-02-08_01-02-08_01-02-08_01-02-08 1.1.4 1.007445091045 -7.386170299620961
hnf_17-12-12_17-12-12_17-12-12_17-12-12_01-03-12_01-03-12_01-03-12_01-03-12 1.1.4 0.8619028992269999 -7.780333220146784
hnf_17-12-12_17-12-12_17-12-12_17-12-12_02-03-12_02-03-12_02-03-12_02-03-12 1.1.3 1.0026256231486728 -10.337481322454463
hnf_23-10-08_23-10-08_23-10-08_23-10-08_02-02-08_02-02-08_02-02-08_02-02-08 1.1.3 1.8038345383756176 -7.486228863834986
hnf_35-11-03_35-11-03_35-11-03_35-11-03_02-01-03_02-01-03_02-01-03_02-01-03 2.1.3 1.4753650396893028 -9.059792457889593
htb-a_17-12-12_17-12-12_01-03-12_01-03-12_01-03-12_01-03-12_01-03-12 1.1.4 0.9850506602175 -7.725837454073083
htb-a_23-12-12_23-12-12_03-03-12_03-03-12_03-03-12_03-03-12_03-03-12 1.1.3 2.1613713794681666 -6.750980056136745
htb-a_35-11-03_35-11-03_02-01-03_02-01-03_02-01-03_02-01-03_02-01-03 1.1.3 1.565929303017426 -8.55052388227501
htb_31-02-05_02-04-05_01-04-05 1.1.3 1.6678154716758573 -6.805365590157422
htb_31-02-08_07-10-08_06-10-08 2.2.3 2.0184428937775865 -9.38775710595019
iab_25-12-12_25-12-12_12-03-12_None_None 1.1.1 2.308830031758 -4.935319934087185
iab_31-01-02_31-01-02_33-11-02_None_None 2.2.1 2.0572856675775 -7.305300751553912
iab_31-03-12_31-03-12_17-12-12_None_None 2.2.1 2.145430049942 -6.167682863032205
iab_31-06-10_31-06-10_34-11-10_None_None 2.2.1 2.258801922888 -7.9149908323015215
iab_31-07-11_31-07-11_36-11-11_None_None 2.2.1 2.0321422650252505 -7.569612055324418
icf_30-03-12_30-03-12_06-12-12_06-12-12_06-12-12_06-12-12 1.1.1 1.966727192001 -6.673442684812896
ict_30-03-12_06-12-12_06-12-12_07-12-12 1.1.1 1.741621310956 -6.572323124517346
ict_30-03-12_06-12-12_07-12-12_06-12-12 1.1.1 1.81801669328 -6.50844672261229
ict_30-03-12_06-12-12_07-12-12_07-12-12 1.1.1 1.726071858627 -6.821871681035521
ict_30-03-12_07-12-12_06-12-12_06-12-12 1.1.1 1.7949825754330002 -7.755586868680324
ict_30-03-12_07-12-12_06-12-12_07-12-12 1.1.1 1.773020868636 -7.50541301958076
ict_30-03-12_07-12-12_07-12-12_06-12-12 1.1.1 1.856001564516 -7.370576044762839
ict_30-03-12_07-12-12_07-12-12_07-12-12 1.1.1 1.827294623856 -7.502333727537848
ict_30-03-12_08-12-12_08-12-12_08-12-12 1.1.1 1.8949052542680005 -6.895189236788334
ict_30-03-12_09-12-12_09-12-12_08-12-12 1.1.1 2.088451007044 -7.498874238672286
iph_15-02-05_15-02-05_05-04-05_05-04-05_05-04-05 1.1.1 56.096589068568 -2.7398411160527147
iph_15-03-09_15-03-09_05-05-09_05-05-09_05-05-09 1.1.1 65.846068468335 -2.776372938751903
[...]
uox_30-03-12_06-12-12_07-12-12_07-12-12 1.1.1 2.043249950976 -5.782712541258871
uox_30-03-12_07-12-12_06-12-12_06-12-12 1.1.1 1.981655097984 -5.676294086578057
uox_30-03-12_07-12-12_07-12-12_06-12-12 1.1.1 2.00709558063 -5.987694806087598
uox_30-03-12_07-12-12_07-12-12_07-12-12 1.1.1 1.953326593066 -6.456835037330625
uoy_30-03-12_06-12-12_06-12-12_06-12-12_06-12-12 2.2.1 2.069691361792 -5.796034161257405
uoy_30-03-12_07-12-12_07-12-12_07-12-12_07-12-12 2.2.1 1.97537373870375 -5.983446126067451
uoz_30-03-12_06-12-12_06-12-12_06-12-12 1.1.2 1.44410038444 -7.485840361672462
uoz_30-03-12_06-12-12_06-12-12_07-12-12 1.1.2 1.4798694421439995 -8.095537362538993
uoz_30-03-12_07-12-12_06-12-12_07-12-12 1.1.2 1.3235420986479998 -7.679004049972963
uoz_30-03-12_07-12-12_07-12-12_06-12-12 1.1.2 1.29030597216 -8.219518336282917
uoz_30-03-12_08-12-12_08-12-12_08-12-12 1.1.2 2.464458750351 -5.762864756305662
uoz_30-03-12_09-12-12_09-12-12_09-12-12 1.1.2 1.8296188452925 -7.075277470266711
upa_30-03-12_08-12-12_08-12-12_08-12-12 2.2.1 1.9482284432785 -8.757314132818664
upb_30-03-12_06-12-12_06-12-12_06-12-12 2.2.1 1.6428732751940005 -6.596150830418659
upb_30-03-12_06-12-12_06-12-12_07-12-12 1.2.1 1.7618685040375 -6.823201584311001
upb_30-03-12_06-12-12_07-12-12_06-12-12 2.2.1 1.649255287872 -7.569781616772778
upb_30-03-12_06-12-12_07-12-12_07-12-12 2.2.1 1.565742004631 -7.076620632927136
upb_30-03-12_07-12-12_06-12-12_06-12-12 1.2.1 1.7107367845625 -6.646562997417567
upb_30-03-12_07-12-12_06-12-12_07-12-12 2.2.1 1.593766821168 -7.325938026909528
upb_30-03-12_07-12-12_07-12-12_06-12-12 2.2.1 1.5825974584735 -7.456854588128187
upb_30-03-12_07-12-12_07-12-12_07-12-12 1.2.1 1.6831856795985 -7.376860475709371
upb_30-03-12_08-12-12_08-12-12_08-12-12 1.1.1 2.370177167553 -6.304368600532454
usm-d_30-04-05_30-04-05_11-04-05_11-04-05_01-02-05_01-02-05_01-02-05_01-02-05_01-02-05 1.1.3 1.6122354381284734 -7.276758059939709
usm-d_30-04-05_30-04-05_11-04-05_11-04-05_02-02-05_02-02-05_02-02-05_02-02-05_02-02-05 1.1.3 1.5591435984278403 -6.884826380579733
usm-d_30-04-05_30-04-05_11-04-05_11-04-05_04-02-05_04-02-05_04-02-05_04-02-05_04-02-05 1.1.3 1.5925596143918763 -7.416965793712142
usm-d_30-04-05_30-04-05_12-04-05_12-04-05_03-02-05_03-02-05_03-02-05_03-02-05_03-02-05 1.1.3 2.0980140917453918 -5.648065699904088
utb_11-03-12_06-12-12_06-12-12 1.1.2 1.7337943041479995 -7.032741666595441
utb_11-03-12_06-12-12_07-12-12 1.1.1 1.844109749592 -6.321767763180752
utb_11-03-12_07-12-12_06-12-12 1.1.1 2.2034113986720003 -6.214444013648162
utb_11-03-12_07-12-12_07-12-12 2.1.1 1.49940414618 -6.787138055255456
utb_11-04-05_01-02-05_02-02-05 1.1.2 1.657141567083 -5.873841610441102
utb_11-04-05_03-02-05_04-02-05 1.1.1 1.7238785359839996 -6.294529289407021
utb_12-03-09_02-05-09_01-05-09 1.1.2 1.4980141626495 -6.505339315634296
utb_23-08-01_01-01-01_01-01-01 1.3.1 2.206768992721204 -6.861183902800192
utb_23-08-01_02-01-01_01-01-01 3.1.1 1.989511253053528 -6.85729982546442
utb_23-08-01_02-01-01_02-01-01 3.1.1 1.8117445632323488 -7.462003267306039
utb_23-10-08_02-02-08_02-02-08 3.1.1 1.8590254553678092 -7.671470985214709
utc_11-03-12_08-12-12_08-12-12_08-12-12 1.1.1 2.62376181172 -5.0296032087544384
utc_17-12-12_02-03-12_02-03-12_02-03-12 1.1.1 1.6072309537899994 -6.07676728522372
utc_36-11-11_01-07-11_02-07-11_01-07-11 1.1.1 1.6512758495199995 -6.69235826406314
utc_36-11-11_02-07-11_01-07-11_02-07-11 1.1.1 1.5807814640000002 -6.495053547818138
utj_12-03-12_06-12-12_06-12-12_06-12-12 1.1.1 2.734718528016 -4.578672811016184
utj_17-12-12_02-03-12_02-03-12_02-03-12 1.1.1 2.450510744118 -4.3801766546752665
utj_34-11-10_01-06-10_01-06-10_02-06-10 2.2.2 2.0618581761287498 -6.477743408379961
utk_12-03-12_06-12-12_06-12-12_06-12-12 1.1.2 2.4196069280800003 -4.589960912295375
utk_12-03-12_09-12-12_09-12-12_09-12-12 1.1.2 2.1868353504725 -6.30354838752029
utk_17-12-12_01-03-12_01-03-12_01-03-12 1.1.2 2.6511596946775007 -4.778728347183237
utk_17-12-12_02-03-12_02-03-12_02-03-12 1.1.2 2.1530284070895 -4.702760589848123
utk_34-11-10_02-06-10_02-06-10_01-06-10 2.2.2 1.3350201759397504 -7.504557698268596
utk_34-11-10_02-06-10_02-06-10_02-06-10 2.2.2 1.7429429057310002 -7.272950211851008
utk_35-11-03_01-01-03_01-01-03_01-01-03 2.2.2 1.4884157551950004 -6.838690818816536
utk_35-11-03_02-01-03_02-01-03_01-01-03 3.3.2 1.236772037695954 -10.414436020495332
utm_12-03-12_06-12-12_06-12-12_06-12-12 2.1.1 2.0172769388760003 -5.53273720551085
utm_12-03-12_07-12-12_07-12-12_07-12-12 2.1.1 1.6965719792860006 -5.713624036453084
utm_12-03-12_09-12-12_09-12-12_09-12-12 2.1.1 1.5990500001374996 -8.18577953905464
utm_17-12-12_01-03-12_01-03-12_01-03-12 1.1.1 2.13701450769 -5.545604424863676
utm_17-12-12_02-03-12_02-03-12_02-03-12 1.1.1 2.362505553004 -4.671938031401928
utm_34-11-10_01-06-10_02-06-10_02-06-10 1.1.1 2.0406821466750005 -6.0803034809015655
utm_34-11-10_02-06-10_02-06-10_02-06-10 1.1.1 1.83769069898 -6.043285024064181
utm_35-11-03_01-01-03_02-01-03_02-01-03 1.3.1 1.2598752944598244 -9.79803101150463
utm_35-11-03_02-01-03_01-01-03_02-01-03 3.1.1 1.2313687908215611 -9.565807976341157
utn_11-03-12_06-12-12_06-12-12_06-12-12 1.1.2 2.3877785716920004 -5.5069688855121095
utn_11-03-12_07-12-12_07-12-12_07-12-12 1.1.2 2.34177937569 -6.035077833999069
utn_11-03-12_09-12-12_09-12-12_09-12-12 1.1.1 1.973269905519 -6.206376181769297
utn_12-03-12_06-12-12_06-12-12_06-12-12 1.1.2 1.722563188043 -6.028026304128474
utn_12-03-12_07-12-12_07-12-12_07-12-12 1.1.1 1.424465093004 -6.6772745712435935
utn_12-03-12_08-12-12_08-12-12_08-12-12 1.1.1 1.740199662381 -6.111244867411972
utn_12-03-12_09-12-12_09-12-12_09-12-12 1.1.1 1.7428177983150004 -7.13709466423592
utn_17-10-08_02-02-08_02-02-08_02-02-08 1.1.2 1.5881524401475 -6.2134226160486135
utn_17-12-12_01-03-12_01-03-12_01-03-12 1.1.2 2.453229569529 -5.862050356423805
utn_17-12-12_02-03-12_02-03-12_02-03-12 1.1.1 1.434732517105 -6.332651176374885
utn_34-11-10_01-06-10_02-06-10_01-06-10 1.1.2 1.550331090156 -7.458825318128567
utn_34-11-10_02-06-10_02-06-10_01-06-10 1.1.2 1.327330648446 -8.315229403855433
utn_34-11-10_02-06-10_02-06-10_02-06-10 1.1.2 1.200485765396 -8.569155781299838
utn_35-11-03_01-01-03_01-01-03_01-01-03 1.1.2 1.617255932259 -6.81076454908178
utn_35-11-03_01-01-03_01-01-03_02-01-03 1.1.2 1.62309389748 -7.707728457682861
utn_35-11-03_01-01-03_02-01-03_01-01-03 1.1.2 1.6704225360000005 -7.25730520041748
utn_35-11-03_01-01-03_02-01-03_02-01-03 1.1.2 1.4794032610494998 -7.503390152411037
utn_35-11-03_02-01-03_01-01-03_01-01-03 1.1.2 1.5405007831999995 -7.2383060922554785
utn_35-11-03_02-01-03_01-01-03_02-01-03 1.1.2 1.4798224742149997 -7.308916273187425
utn_35-11-03_02-01-03_02-01-03_01-01-03 1.1.2 1.6433156087599996 -8.527207041305086
utn_35-11-03_02-01-03_02-01-03_02-01-03 1.1.2 1.4072719087169998 -8.056078070948688
utn_36-11-11_02-07-11_01-07-11_01-07-11 1.1.2 1.3531033959705 -7.3451116623409
uto_12-03-12_06-12-12_06-12-12_06-12-12 1.1.1 2.598263951258 -4.6672262263517
uto_17-12-12_01-03-12_01-03-12_01-03-12 1.1.1 2.5872858301590003 -4.762018375804137
uto_17-12-12_02-03-12_02-03-12_02-03-12 1.1.1 1.800387888635 -5.226228401990611
uto_33-11-02_01-01-02_01-01-02_01-01-02 2.2.1 2.0256473926200003 -6.026099670812895
uto_33-11-02_01-01-02_02-01-02_01-01-02 2.2.1 2.048715340866 -5.765104920963515
uto_33-11-02_01-01-02_02-01-02_02-01-02 2.2.1 1.8386870798272497 -6.173313388528821
uto_33-11-02_02-01-02_01-01-02_01-01-02 2.2.1 1.843030555569 -6.154403866751503
uto_33-11-02_02-01-02_01-01-02_02-01-02 1.2.1 1.5353169016635 -6.931050691591752
uto_33-11-02_02-01-02_02-01-02_01-01-02 2.2.1 1.85099775372375 -5.661292907218821
uto_33-11-02_02-01-02_02-01-02_02-01-02 2.2.1 1.6657071142500002 -6.05160871140855
uto_34-11-10_01-06-10_01-06-10_01-06-10 2.2.1 2.508830302052 -6.137906046360913
uto_34-11-10_01-06-10_01-06-10_02-06-10 2.2.1 2.25393762510975 -6.300326165319082
uto_34-11-10_01-06-10_02-06-10_01-06-10 2.2.1 2.035151943438 -6.14342897853138
uto_34-11-10_01-06-10_02-06-10_02-06-10 1.1.1 2.018205067958 -6.311275419705825
uto_34-11-10_02-06-10_01-06-10_01-06-10 2.2.1 2.1837481654185003 -6.277582572160847
uto_34-11-10_02-06-10_01-06-10_02-06-10 2.2.1 1.9753211677742504 -6.732610079323548
uto_34-11-10_02-06-10_02-06-10_01-06-10 2.2.1 1.78722350903725 -6.414686704954447
uto_34-11-10_02-06-10_02-06-10_02-06-10 1.1.1 1.7283663231199995 -6.718054283560965
utp_17-10-08_01-02-08_01-02-08_01-02-08 1.1.9 1.0198994877936531 -8.348262705508743
utp_17-12-12_02-03-12_02-03-12_02-03-12 1.1.6 0.8193159586336947 -7.228559181681152
utp_34-11-10_02-06-10_02-06-10_01-06-10 1.2.3 1.9779830698924967 -6.445663128944921
utp_34-11-10_02-06-10_02-06-10_02-06-10 1.2.3 1.7665430606800792 -6.360491477955832
utp_35-11-03_01-01-03_02-01-03_02-01-03 1.1.4 1.5443813017020005 -7.76424091484663
utq_12-03-12_06-12-12_06-12-12_06-12-12 1.2.1 2.3362570964005003 -4.806699960994562
utq_12-03-12_07-12-12_07-12-12_07-12-12 1.2.1 2.24078575185 -4.99809787788686
utq_12-03-12_09-12-12_09-12-12_09-12-12 1.3.1 1.869437779407968 -8.127348654436824
utq_17-12-12_02-03-12_02-03-12_02-03-12 1.2.1 2.0969405924945 -4.750402253044086
utq_33-11-02_01-01-02_01-01-02_02-01-02 1.2.1 2.062947237048 -6.108348480239812
utq_33-11-02_01-01-02_02-01-02_01-01-02 1.2.1 2.00940819903 -6.32520790149342
utq_35-11-03_01-01-03_01-01-03_01-01-03 2.2.1 1.4642582219955 -9.029843402129234
utq_35-11-03_01-01-03_01-01-03_02-01-03 2.2.1 1.5309886548699998 -8.18663232132179
utq_35-11-03_01-01-03_02-01-03_01-01-03 2.2.1 1.3495622072100002 -8.915041146205317
utq_35-11-03_01-01-03_02-01-03_02-01-03 2.2.1 1.2739888099544998 -9.166874940114209
utq_35-11-03_02-01-03_01-01-03_01-01-03 2.2.1 1.3572183105 -9.132133565331328
utq_35-11-03_02-01-03_01-01-03_02-01-03 2.2.1 1.40583135050425 -9.03741519666204
utq_35-11-03_04-01-03_04-01-03_03-01-03 3.1.1 1.3511717003881776 -8.508205192571657
var_12-03-12_12-03-12_12-03-12_06-12-12_06-12-12_06-12-12_06-12-12_06-12-12 1.1.3 1.0950128161829928 -7.352757709783691
var_18-12-12_18-12-12_18-12-12_01-03-12_01-03-12_01-03-12_01-03-12_01-03-12 3.1.6 1.017499559472045 -8.273598841919286
var_23-12-12_23-12-12_23-12-12_01-03-12_01-03-12_01-03-12_01-03-12_01-03-12 1.1.3 2.200865044899613 -6.616015914199754
var_35-11-03_35-11-03_35-11-03_01-01-03_01-01-03_01-01-03_01-01-03_01-01-03 1.1.3 1.6289277388488204 -8.523846529335444
vbb_31-03-12_06-12-12_06-12-12_06-12-12_06-12-12 6.1.1 1.1810886688905955 -7.812610004323665
wiw_12-03-12_06-12-12_06-12-12_06-12-12 1.1.1 2.477752519164 -4.603594644587202
wiw_12-03-12_07-12-12_07-12-12_07-12-12 1.1.1 2.3170670587159994 -5.249039639185325
wiw_17-12-12_01-03-12_01-03-12_01-03-12 1.1.1 3.1009929256319992 -4.570302408172177
wiw_17-12-12_02-03-12_02-03-12_02-03-12 1.1.1 1.908844989975 -5.533452361644868
wix_11-03-12_06-12-12_06-12-12_06-12-12 2.1.1 2.125974579333 -5.129956839765216
wix_12-03-12_06-12-12_06-12-12_06-12-12 1.1.2 2.818185588212499 -4.449850196385864
wix_17-12-12_02-03-12_02-03-12_02-03-12 1.1.2 2.7178316762025 -4.239473217734909
wix_34-11-10_02-06-10_02-06-10_02-06-10 2.2.2 1.5218647235425005 -7.420826619796473
wix_34-11-10_04-06-10_03-06-10_03-06-10 2.2.1 2.2664567312910004 -6.264441377161713
wix_35-11-03_01-01-03_02-01-03_01-01-03 1.3.2 1.5169911083549992 -8.4038651955796
wix_35-11-03_02-01-03_02-01-03_01-01-03 1.3.2 1.4391122251590116 -8.074025015570623
wix_35-11-03_04-01-03_04-01-03_03-01-03 1.3.1 2.012469510194133 -7.364282966386639
wiy_12-03-12_06-12-12_06-12-12_06-12-12 1.1.6 1.1222723825795475 -7.244107944724183
wiy_35-11-03_01-01-03_01-01-03_01-01-03 1.1.4 2.152877797392 -7.524733707758502
wiy_35-11-03_03-01-03_04-01-03_04-01-03 2.2.1 1.5795545998050002 -8.188964244904525
wiz_11-03-12_06-12-12_06-12-12_06-12-12 2.2.1 2.46505806194175 -4.866379252714641
wiz_11-03-12_07-12-12_07-12-12_07-12-12 2.2.1 2.34249224735625 -5.005956855567183
wiz_12-03-12_06-12-12_06-12-12_06-12-12 2.2.1 2.10871557241125 -5.172601570017061
wiz_12-03-12_07-12-12_07-12-12_07-12-12 2.2.1 2.0406410157240003 -5.488111962944005
wiz_17-10-08_02-02-08_02-02-08_02-02-08 2.2.1 1.8032031280612504 -5.96131559479412
wiz_17-12-12_01-03-12_01-03-12_01-03-12 2.2.1 2.264762237331 -5.391509352636954
wiz_17-12-12_02-03-12_02-03-12_02-03-12 2.2.1 1.9518146607450004 -5.140654898272316
wiz_33-11-02_01-01-02_01-01-02_01-01-02 2.2.1 2.175680476672 -6.565182205985928
wiz_33-11-02_01-01-02_01-01-02_02-01-02 3.3.1 1.5301171881219957 -6.712010190202714
wiz_33-11-02_01-01-02_02-01-02_01-01-02 3.3.1 1.4959806252021663 -6.783525175379537
wiz_33-11-02_01-01-02_02-01-02_02-01-02 3.3.1 1.3464878598534396 -6.900768483472601
wiz_33-11-02_02-01-02_01-01-02_01-01-02 2.2.1 2.0123449389552506 -6.917545626462563
wiz_33-11-02_02-01-02_02-01-02_01-01-02 3.3.1 1.3909541702983557 -7.337357930364425
wiz_33-11-02_02-01-02_02-01-02_02-01-02 3.3.1 1.2784672426530248 -7.34928028800324
wiz_34-11-10_01-06-10_01-06-10_01-06-10 3.3.1 1.9636575429355696 -7.395698037792232
wiz_34-11-10_01-06-10_02-06-10_01-06-10 3.3.1 1.7976619275364254 -7.837854604830485
wiz_34-11-10_01-06-10_02-06-10_02-06-10 3.3.1 1.550348760426545 -8.01036114742162
wiz_34-11-10_02-06-10_01-06-10_01-06-10 2.2.1 2.2049761965262498 -8.124043062386104
wiz_34-11-10_02-06-10_01-06-10_02-06-10 3.3.1 1.5924112140979505 -8.285800551794528
wiz_34-11-10_02-06-10_02-06-10_01-06-10 2.2.1 1.967730225355 -7.837579728303107
wiz_34-11-10_02-06-10_02-06-10_02-06-10 3.3.1 1.5060927491996543 -8.278667256962475
wiz_36-11-11_01-07-11_01-07-11_02-07-11 2.2.1 1.6787360913785003 -6.671914276607044
wiz_36-11-11_02-07-11_01-07-11_01-07-11 2.2.1 1.7226724776305 -6.791952007566922
wiz_36-11-11_02-07-11_01-07-11_02-07-11 2.2.1 1.500952000068 -6.97334579732054
wiz_36-11-11_02-07-11_02-07-11_02-07-11 2.2.1 1.2824208829009998 -7.254620057895548
wje_30-03-12_06-12-12_06-12-12_06-12-12_06-12-12 1.1.1 1.99237530428 -6.456757146772551
wje_30-03-12_07-12-12_07-12-12_07-12-12_07-12-12 1.1.1 1.8664895515370008 -6.505049284592146
wje_30-03-12_09-12-12_09-12-12_09-12-12_09-12-12 1.1.1 1.95998183541 -7.152589889859472
wut_30-03-12_30-03-12_06-12-12_06-12-12_06-12-12 1.1.1 1.8877012580200003 -6.57474130712906
wut_30-03-12_30-03-12_06-12-12_06-12-12_07-12-12 1.1.1 1.8681410631360005 -6.467507375747114
wut_30-03-12_30-03-12_06-12-12_07-12-12_06-12-12 1.1.1 1.832178715656 -6.735077192265093
wut_30-03-12_30-03-12_06-12-12_07-12-12_07-12-12 1.1.1 1.7975747936879998 -6.930795597567076
wut_30-03-12_30-03-12_07-12-12_06-12-12_06-12-12 1.1.1 1.832178715656 -6.542117149987562
wut_30-03-12_30-03-12_07-12-12_06-12-12_07-12-12 1.1.1 1.892671213017 -6.763741661862729
wut_30-03-12_30-03-12_07-12-12_07-12-12_06-12-12 1.1.1 1.817941250495 -7.103541175778942
wut_30-03-12_30-03-12_07-12-12_07-12-12_07-12-12 1.1.1 1.7143051025240004 -7.258235875576241
wut_30-03-12_30-03-12_08-12-12_08-12-12_08-12-12 1.1.1 2.2615215066460004 -6.152052986274994
wut_30-03-12_30-03-12_08-12-12_09-12-12_09-12-12 1.1.1 1.976356377963 -7.232684929846161
wut_30-03-12_30-03-12_09-12-12_08-12-12_08-12-12 1.1.1 2.2164283026060003 -6.918154804169223
wut_30-03-12_30-03-12_09-12-12_08-12-12_09-12-12 1.1.1 2.0775856802400003 -7.399403375637391
wut_30-03-12_30-03-12_09-12-12_09-12-12_08-12-12 1.1.1 1.983733920789 -7.418906757221767
xca_30-03-12_12-03-12_06-12-12_06-12-12_06-12-12_06-12-12 1.2.1 2.3678672273375 -4.616990766500139
yac_31-01-02_31-01-02_31-01-02_33-11-02_33-11-02_33-11-02_33-11-02_33-11-02_None_None_None_None_None_None_None 2.2.1 2.3095446597795 -6.418812865328486
yac_31-03-12_31-03-12_31-03-12_17-12-12_17-12-12_17-12-12_17-12-12_17-12-12_None_None_None_None_None_None_None 1.1.1 2.350038320198 -5.509191943646727
yac_31-06-10_31-06-10_31-06-10_34-11-10_34-11-10_34-11-10_34-11-10_34-11-10_None_None_None_None_None_None_None 2.2.1 2.435353619356 -6.734917661611738
yao_31-01-02_31-01-02_33-11-02_33-11-02_33-11-02_None_None_None_None 2.2.1 2.20505444286375 -6.028361700116358
yao_31-03-12_31-03-12_17-12-12_17-12-12_17-12-12_None_None_None_None 1.1.1 2.429279670662 -5.902528351656839
yao_31-06-10_31-06-10_34-11-10_34-11-10_34-11-10_None_None_None_None 2.2.1 2.426441732904 -6.800400371392134
yav-d-a_15-02-05_15-02-05_15-02-05_05-04-05_05-04-05_05-04-05_05-04-05 1.1.1 55.518404908032 -2.695572071654783
yav-d-a_15-02-06_15-02-06_15-02-06_05-02-06_05-02-06_05-02-06_05-02-06 1.1.1 56.814746428692 -2.7109457532854506
yav-d-a_15-03-09_15-03-09_15-03-09_05-05-09_05-05-09_05-05-09_05-05-09 1.1.1 60.90175141670199 -2.645263640928871
yav-d-a_15-04-05_15-04-05_15-04-05_05-02-05_05-02-05_05-02-05_05-02-05 1.1.1 57.96806299891199 -2.735025343688331
yav-d-a_15-05-09_15-05-09_15-05-09_05-03-09_05-03-09_05-03-09_05-03-09 1.1.1 60.191183546886 -2.5712993348187294
yug_30-03-12_30-03-12_06-12-12_06-12-12_06-12-12_06-12-12_06-12-12_06-12-12 1.1.2 2.398098746516 -5.000848297000088
zni_30-02-05_01-04-05_01-04-05_01-04-05 1.1.1 2.862120411128 -4.330461909345014
zni_30-02-08_06-10-08_06-10-08_07-10-08 1.1.1 1.504513908072 -8.8619614391334
zni_30-02-08_06-10-08_07-10-08_06-10-08 1.1.1 1.504872180507 -8.095089930145297
zni_30-02-08_08-10-08_09-10-08_08-10-08 1.1.1 2.115397828544 -8.370476046158469
zni_30-02-08_09-10-08_09-10-08_08-10-08 1.1.1 2.084956384035 -8.202866590051942
zni_30-03-09_02-05-09_02-05-09_02-05-09 1.1.1 1.6721286917399996 -6.079319519198277
zni_30-03-12_06-12-12_07-12-12_06-12-12 1.1.1 1.3832761968660003 -8.353121851765492
zni_30-03-12_07-12-12_06-12-12_06-12-12 1.1.1 1.3615180183860005 -8.252241804953803
zni_30-03-12_07-12-12_06-12-12_07-12-12 1.1.1 1.336507832373 -9.101931479560522
zni_30-03-12_07-12-12_07-12-12_06-12-12 1.1.1 1.3524318152639998 -8.679858797372106
znp_30-03-12_30-03-12_30-03-12_30-03-12_06-12-12_06-12-12_06-12-12_06-12-12_06-12-12_06-12-12 2.1.1 2.2124286960960005 -5.293241644320252
zra-d_30-03-12_30-03-12_30-03-12_30-03-12_30-03-12_06-12-12_06-12-12_06-12-12_06-12-12_06-12-12_06-12-12_06-12-12_06-12-12 1.1.1 2.35962657517 -5.149819471604283
zsn_30-03-12_30-03-12_30-03-12_06-12-12_06-12-12_06-12-12_06-12-12_06-12-12 1.1.1 2.231757710242 -5.553521760097648
zxd_11-03-12_11-03-12_06-12-12_06-12-12_06-12-12 1.1.2 1.4969615770349998 -9.98947453889016
zxd_11-03-12_12-03-12_06-12-12_06-12-12_06-12-12 1.1.2 1.233043879626 -9.60027171941611
zxd_12-03-12_11-03-12_06-12-12_06-12-12_06-12-12 1.1.2 1.257361545503 -9.934175955960166
zxd_12-03-12_11-03-12_07-12-12_07-12-12_07-12-12 1.1.2 1.194134623574 -9.65414167744101
zxd_12-03-12_12-03-12_06-12-12_06-12-12_06-12-12 1.1.2 1.350947200551 -8.081181576592796
zxd_12-03-12_12-03-12_07-12-12_07-12-12_07-12-12 1.1.2 1.238777039772 -9.240620687642052
zxd_23-10-08_23-10-08_02-02-08_02-02-08_02-02-08 1.1.2 2.0593544932935 -6.85390498725543
zxd_33-11-02_33-11-02_01-01-02_02-01-02_02-01-02 1.1.1 1.819206451242 -5.75089145983583
zxd_34-11-10_34-11-10_02-06-10_02-06-10_02-06-10 1.1.1 1.7151779848910005 -6.045663243950966
zxd_35-11-03_35-11-03_01-01-03_01-01-03_01-01-03 1.1.2 1.893119375892 -7.9384955716287715
zxd_35-11-03_35-11-03_01-01-03_01-01-03_02-01-03 1.1.2 1.7445701199875 -8.02867910466208
zxd_35-11-03_35-11-03_01-01-03_02-01-03_01-01-03 1.1.2 1.8001749939840002 -8.305063634824249
zxd_35-11-03_35-11-03_01-01-03_02-01-03_02-01-03 1.1.2 1.6378831301169998 -7.850737301846796
zxd_35-11-03_35-11-03_02-01-03_01-01-03_01-01-03 1.1.2 1.848484774896 -8.069541855066277
zxd_35-11-03_35-11-03_02-01-03_02-01-03_01-01-03 1.1.2 1.7801016777249998 -8.01006718274515
zxd_35-11-03_35-11-03_02-01-03_02-01-03_02-01-03 1.1.2 1.576888764035 -8.100759932616159
zxd_35-11-03_35-11-03_03-01-03_04-01-03_03-01-03 1.1.2 2.10970361776 -7.3801453748225665
zxd_35-11-03_35-11-03_03-01-03_04-01-03_04-01-03 1.1.2 2.0300127446365 -7.359399606822183
zxd_35-11-03_35-11-03_04-01-03_03-01-03_04-01-03 1.1.2 2.10131530411 -7.526554067728934
zxd_35-11-03_35-11-03_04-01-03_04-01-03_03-01-03 1.1.2 2.0695367584940003 -7.378340745157395
zxd_35-11-03_35-11-03_04-01-03_04-01-03_04-01-03 1.1.2 2.04988505967 -7.862988716510069
zxd_36-11-11_36-11-11_02-07-11_02-07-11_01-07-11 1.1.2 0.8860384109515 -9.94694036456698
