data_COF-1_n2_77K_LP_mm3_dreiding
_audit_aif_version 63df4e8
_exptl_method GCMC
_exptl_adsorptive n2
_exptl_temperature 77
_adsnt_material_id COF-1
_simltn_code RASPA 2.0.41
_simltn_date 2023-03-06T11:57:46.700000
_simltn_size 3.3.5
_simltn_forcefield_adsorptive dreiding
_simltn_forcefield_adsorbent mm3
_units_temperature K
_units_pressure Pa
_units_loading cm^3/g

loop_
_adsorp_pressure
_adsorp_amount_absolute
1.0 35.038311111555004
10.0 112.468178899424
101.0 140.37083395811496
1013.0 153.650193877107
10130.0 159.22432519732996
3.0 78.19783077114
30.0 130.20172412135798
3039.0 157.848391518952
30390.0 160.04988540431702
304.0 147.096909753229
5.0 96.513747922045
50.0 134.239929475038
5065.0 158.96193784469997
50650.0 162.366573737182
507.0 148.242454536604
7.0 105.77410156194797
70.0 136.87660238425298
709.0 149.89357495061597
7091.0 160.536261960385
70910.0 162.16178360831597
