data_COF-1_n2_77K_LP_dreiding_dreiding
_audit_aif_version 63df4e8
_exptl_method GCMC
_exptl_adsorptive n2
_exptl_temperature 77
_adsnt_material_id COF-1
_simltn_code RASPA 2.0.41
_simltn_date 2023-03-06T11:45:19.900000
_simltn_size 3.3.5
_simltn_forcefield_adsorptive dreiding
_simltn_forcefield_adsorbent dreiding
_units_temperature K
_units_pressure Pa
_units_loading cm^3/g

loop_
_adsorp_pressure
_adsorp_amount_absolute
1.0 150.32875397446898
10.0 158.161976403783
101.0 162.168183299826
1013.0 167.76791338615203
10130.0 169.5918254714
3.0 155.97328190148
30.0 161.93779440482803
3039.0 165.02884541251495
30390.0 170.622175807311
304.0 164.440073791968
5.0 156.939635322096
50.0 162.35377435412505
5065.0 168.203092410024
50650.0 171.67172521777502
507.0 163.52491790359304
7.0 158.072380722422
70.0 163.76170649010103
709.0 165.39362782956496
7091.0 166.72476366720798
70910.0 168.97105539325895
