data_COF-1_n2_77K_LP_dreiding_uff
_audit_aif_version 63df4e8
_exptl_method GCMC
_exptl_adsorptive n2
_exptl_temperature 77
_adsnt_material_id COF-1
_simltn_code RASPA 2.0.41
_simltn_date 2023-03-06T11:53:08.000000256
_simltn_size 3.3.5
_simltn_forcefield_adsorptive uff
_simltn_forcefield_adsorbent dreiding
_units_temperature K
_units_pressure Pa
_units_loading cm^3/g

loop_
_adsorp_pressure
_adsorp_amount_absolute
1.0 148.786428316415
10.0 157.22122174928
101.0 162.462569110083
1013.0 167.39033158604903
10130.0 171.08935328881103
3.0 152.83103336161696
30.0 162.398572194815
3039.0 168.86866032881997
30390.0 168.292688091394
304.0 166.11679297213894
5.0 155.749292698026
50.0 160.29307368236903
5065.0 168.324686549039
50650.0 169.00305385089305
507.0 165.860805311059
7.0 155.678896091229
70.0 165.649615490648
709.0 165.33603060584
7091.0 169.335837810325
70910.0 170.30219123092408
