data_COF-1_n2_77K_LP_mm3_mm3
_audit_aif_version 63df4e8
_exptl_method GCMC
_exptl_adsorptive n2
_exptl_temperature 77
_adsnt_material_id COF-1
_simltn_code RASPA 2.0.41
_simltn_date 2023-03-06T12:07:59
_simltn_size 3.3.5
_simltn_forcefield_adsorptive mm3
_simltn_forcefield_adsorbent mm3
_units_temperature K
_units_pressure Pa
_units_loading cm^3/g

loop_
_adsorp_pressure
_adsorp_amount_absolute
1.0 26.641915827827003
10.0 87.52218132630001
101.0 124.16041531966002
1013.0 142.30354079934
10130.0 149.189608882625
3.0 55.363731402011005
30.0 110.14509087504301
3039.0 146.002562502078
30390.0 153.413405290589
304.0 134.18233225128998
5.0 70.78698798261401
50.0 116.48718517852099
5065.0 149.1128125843
50650.0 157.34281588830603
507.0 135.897449580588
7.0 79.464969693527
70.0 120.755779427173
709.0 139.590071591793
7091.0 149.151210733469
70910.0 157.74599645451397
