data_COF-1_n2_77K_LP_uff_mm3
_audit_aif_version 63df4e8
_exptl_method GCMC
_exptl_adsorptive n2
_exptl_temperature 77
_adsnt_material_id COF-1
_simltn_code RASPA 2.0.41
_simltn_date 2023-03-06T14:03:00.550000128
_simltn_size 3.3.5
_simltn_forcefield_adsorptive mm3
_simltn_forcefield_adsorbent uff
_units_temperature K
_units_pressure Pa
_units_loading cm^3/g

loop_
_adsorp_pressure
_adsorp_amount_absolute
1.0 152.024672229188
10.0 161.035437899515
101.0 166.27038556877596
1013.0 171.84451688900504
10130.0 177.265055612573
3.0 155.230917684322
30.0 162.09778669303404
3039.0 173.20765118431
30390.0 182.44240605807605
304.0 169.93740881389303
5.0 157.76519552910202
50.0 163.00014319837103
5065.0 174.59638424570608
50650.0 181.597646776483
507.0 168.67666958300993
7.0 156.09487604049698
70.0 163.38412469000102
709.0 170.94216038365906
7091.0 176.69548306663805
70910.0 185.44386138436997
