data_COF-1_n2_77K_LP_mm3_trappe
_audit_aif_version 63df4e8
_exptl_method GCMC
_exptl_adsorptive n2
_exptl_temperature 77
_adsnt_material_id COF-1
_simltn_code RASPA 2.0.41
_simltn_date 2023-03-15T16:06:52.349999872
_simltn_size 3.3.5
_simltn_forcefield_adsorptive trappe
_simltn_forcefield_adsorbent mm3
_units_temperature K
_units_pressure Pa
_units_loading cm^3/g

loop_
_adsorp_pressure
_adsorp_amount_absolute
1.0 46.916138586077004
10.0 120.275802562635
101.0 142.99470748427802
1013.0 153.73338986695902
10130.0 153.97657814500198
3.0 94.165061131561
30.0 134.13113471907403
3039.0 153.29181115159
30390.0 158.57155666153398
304.0 146.188153556365
5.0 107.31642722000998
50.0 138.82210860851998
5065.0 154.027775677198
50650.0 159.27552272953702
507.0 147.84567366191496
7.0 116.58318055143302
70.0 141.535577816072
709.0 152.33185742249898
7091.0 152.98462595826499
70910.0 159.69790237031103
