data_COF-1_n2_77K_LP_uff_uff
_audit_aif_version 63df4e8
_exptl_method GCMC
_exptl_adsorptive n2
_exptl_temperature 77
_adsnt_material_id COF-1
_simltn_code RASPA 2.0.41
_simltn_date 2023-03-06T15:31:57.900000
_simltn_size 3.3.5
_simltn_forcefield_adsorptive uff
_simltn_forcefield_adsorbent uff
_units_temperature K
_units_pressure Pa
_units_loading cm^3/g

loop_
_adsorp_pressure
_adsorp_amount_absolute
1.0 160.84984684521797
10.0 165.83520654493498
101.0 169.04785169160502
1013.0 171.87011565511202
10130.0 172.88766660795199
3.0 162.686558313539
30.0 168.26708932528499
3039.0 177.316253144769
30390.0 176.394697564848
304.0 169.28464027809198
5.0 163.47372037138598
50.0 168.631871742322
5065.0 175.97231792401905
50650.0 179.863330372635
507.0 170.77576840396208
7.0 162.948945666149
70.0 167.780712769193
709.0 173.02206013000898
7091.0 173.19485180126998
70910.0 176.76587967343403
