data_COF-1_n2_77K_LP_dreiding_mm3
_audit_aif_version 63df4e8
_exptl_method GCMC
_exptl_adsorptive n2
_exptl_temperature 77
_adsnt_material_id COF-1
_simltn_code RASPA 2.0.41
_simltn_date 2023-03-06T11:45:20.149999872
_simltn_size 3.3.5
_simltn_forcefield_adsorptive mm3
_simltn_forcefield_adsorbent dreiding
_units_temperature K
_units_pressure Pa
_units_loading cm^3/g

loop_
_adsorp_pressure
_adsorp_amount_absolute
1.0 138.578920330485
10.0 148.978419062229
101.0 156.84363994916998
1013.0 163.07053980518597
10130.0 167.089546084262
3.0 144.946613400074
30.0 153.989377528045
3039.0 164.91365096501696
30390.0 170.05260326137207
304.0 161.49621568944502
5.0 147.61528476693496
50.0 155.941283443853
5065.0 169.61102454598102
50650.0 171.42213724819507
507.0 161.90579594719603
7.0 148.722431401136
70.0 153.323809609218
709.0 162.25777898119898
7091.0 167.97270351502098
70910.0 171.84451688898906
