data_COF-1_n2_77K_LP_uff_dreiding
_audit_aif_version 63df4e8
_exptl_method GCMC
_exptl_adsorptive n2
_exptl_temperature 77
_adsnt_material_id COF-1
_simltn_code RASPA 2.0.41
_simltn_date 2023-03-06T13:00:11.449999872
_simltn_size 3.3.5
_simltn_forcefield_adsorptive dreiding
_simltn_forcefield_adsorbent uff
_units_temperature K
_units_pressure Pa
_units_loading cm^3/g

loop_
_adsorp_pressure
_adsorp_amount_absolute
1.0 159.883493424617
10.0 164.77285775141993
101.0 167.16634238257103
1013.0 171.87011565510306
10130.0 173.09885642835806
3.0 163.640112351099
30.0 168.90065878646107
3039.0 171.870115655122
30390.0 179.8889291387221
304.0 169.98860634609704
5.0 166.225587728105
50.0 166.923154104557
5065.0 173.034859513074
50650.0 175.74832872060497
507.0 171.84451688900404
7.0 163.97929600204097
70.0 168.82386248813302
709.0 171.53093200417104
7091.0 176.247504659721
70910.0 176.70828244969505
