data_COF-1_n2_77K_LP_mm3_uff
_audit_aif_version 63df4e8
_exptl_method GCMC
_exptl_adsorptive n2
_exptl_temperature 77
_adsnt_material_id COF-1
_simltn_code RASPA 2.0.41
_simltn_date 2023-03-06T12:44:10.650000128
_simltn_size 3.3.5
_simltn_forcefield_adsorptive uff
_simltn_forcefield_adsorbent mm3
_units_temperature K
_units_pressure Pa
_units_loading cm^3/g

loop_
_adsorp_pressure
_adsorp_amount_absolute
1.0 30.62892364929
10.0 105.07013549394698
101.0 137.414176472536
1013.0 151.13511510689898
10130.0 158.30916930892002
3.0 69.19346479233299
30.0 124.000423031482
3039.0 154.834136809642
30390.0 161.592211062354
304.0 144.530633450807
5.0 87.09340199397302
50.0 130.560106846883
5065.0 156.68364766099796
50650.0 161.92499502178597
507.0 148.261653611178
7.0 95.87377876932702
70.0 133.318373895117
709.0 147.960868109403
7091.0 159.43551501771196
70910.0 161.30422494363896
