data_COF-1_n2_77K_LP_uff_trappe
_audit_aif_version 63df4e8
_exptl_method GCMC
_exptl_adsorptive n2
_exptl_temperature 77
_adsnt_material_id COF-1
_simltn_code RASPA 2.0.41
_simltn_date 2023-03-15T16:32:52.649999872
_simltn_size 3.3.5
_simltn_forcefield_adsorptive trappe
_simltn_forcefield_adsorbent uff
_units_temperature K
_units_pressure Pa
_units_loading cm^3/g

loop_
_adsorp_pressure
_adsorp_amount_absolute
1.0 158.904340620973
10.0 158.98753661080306
101.0 167.364732819946
1013.0 165.90560315173002
10130.0 166.62236860279202
3.0 162.328175588024
30.0 161.71380520141
3039.0 166.92955379607102
30390.0 171.68452460083995
304.0 164.65766330393097
5.0 162.84015091018503
50.0 166.78876058247204
5065.0 172.510084807854
50650.0 168.126296111694
507.0 165.758410246618
7.0 163.960096927451
70.0 161.41941939113403
709.0 166.910354721515
7091.0 168.63827143384896
70910.0 170.430185061489
