data_COF-1_n2_77K_LP_dreiding_trappe
_audit_aif_version 63df4e8
_exptl_method GCMC
_exptl_adsorptive n2
_exptl_temperature 77
_adsnt_material_id COF-1
_simltn_code RASPA 2.0.41
_simltn_date 2023-03-15T16:01:40.899999744
_simltn_size 3.3.5
_simltn_forcefield_adsorptive trappe
_simltn_forcefield_adsorbent dreiding
_units_temperature K
_units_pressure Pa
_units_loading cm^3/g

loop_
_adsorp_pressure
_adsorp_amount_absolute
1.0 151.73668611045497
10.0 159.48031285842305
101.0 156.70924642708903
1013.0 161.70100581835203
10130.0 164.47207224963097
3.0 153.84858431445403
30.0 159.921891573783
3039.0 162.072187926928
30390.0 165.041644795549
304.0 161.22742864530903
5.0 154.43735593495498
50.0 158.93633907859203
5065.0 164.42087471740794
50650.0 164.28648119534498
507.0 163.96649661895498
7.0 155.339712440285
70.0 159.19872643119703
709.0 163.21133301877
7091.0 163.30092870015898
70910.0 166.814359348582
