data_COF-5_n2_77K_LP_mm3_dreiding
_audit_aif_version 63df4e8
_exptl_method GCMC
_exptl_adsorptive n2
_exptl_temperature 77
_adsnt_material_id COF-5
_simltn_code RASPA 2.0.41
_simltn_date 2023-03-06T17:04:54.400000
_simltn_size 2.2.4
_simltn_forcefield_adsorptive dreiding
_simltn_forcefield_adsorbent mm3
_units_temperature K
_units_pressure Pa
_units_loading cm^3/g

loop_
_adsorp_pressure
_adsorp_amount_absolute
1.0 0.09041518220400001
10.0 0.6705792680129999
101.0 7.474321728864998
1013.0 171.55527363416297
10130.0 769.9832262504101
3.0 0.12055357627199999
30.0 2.3357255402700003
3039.0 331.72576890909403
30390.0 809.2158807285768
304.0 27.945825899652995
5.0 0.39933372140100004
50.0 3.6768840762959996
5065.0 385.71116728357396
50650.0 824.1117819967121
507.0 57.36843310863601
7.0 0.4897489036049999
70.0 5.522860712961001
709.0 102.81713136334001
7091.0 451.382727957982
70910.0 830.026441832573
