data_COF-5_n2_77K_LP_mm3_uff
_audit_aif_version 63df4e8
_exptl_method GCMC
_exptl_adsorptive n2
_exptl_temperature 77
_adsnt_material_id COF-5
_simltn_code RASPA 2.0.41
_simltn_date 2023-03-06T17:47:14.649999872
_simltn_size 2.2.4
_simltn_forcefield_adsorptive uff
_simltn_forcefield_adsorbent mm3
_units_temperature K
_units_pressure Pa
_units_loading cm^3/g

loop_
_adsorp_pressure
_adsorp_amount_absolute
1.0 0.067811386653
10.0 0.7459252531830001
101.0 7.790774866579
1013.0 122.48243349276902
10130.0 380.557501897938
3.0 0.17329576589100001
30.0 2.2151719639980003
3039.0 267.72688910547004
30390.0 751.470717694098
304.0 24.954590288402002
5.0 0.391799122884
50.0 3.6994878718469995
5065.0 317.48537771191803
50650.0 775.370464190096
507.0 47.98032335642601
7.0 0.5650948887749999
70.0 5.115992393042999
709.0 76.528917137435
7091.0 347.6614447726051
70910.0 790.4095228300678
