data_COF-5_n2_77K_LP_uff_dreiding
_audit_aif_version 63df4e8
_exptl_method GCMC
_exptl_adsorptive n2
_exptl_temperature 77
_adsnt_material_id COF-5
_simltn_code RASPA 2.0.41
_simltn_date 2023-03-06T17:52:43.950000128
_simltn_size 2.2.4
_simltn_forcefield_adsorptive dreiding
_simltn_forcefield_adsorbent uff
_units_temperature K
_units_pressure Pa
_units_loading cm^3/g

loop_
_adsorp_pressure
_adsorp_amount_absolute
1.0 9.380575153666
10.0 192.80284145218303
101.0 338.748014726978
1013.0 407.16970386008006
10130.0 837.8774934873541
3.0 33.87555493253701
30.0 277.77804352718596
3039.0 490.97704316495606
30390.0 867.209685514143
304.0 373.41470250382
5.0 76.15972181010399
50.0 304.503264467068
5065.0 588.7535281204
50650.0 879.9431570078791
507.0 387.5420747232051
7.0 134.52272192298
70.0 322.247243974673
709.0 395.71711411419597
7091.0 822.3411513452161
70910.0 888.9997444253411
