data_COF-5_n2_77K_LP_mm3_mm3
_audit_aif_version 63df4e8
_exptl_method GCMC
_exptl_adsorptive n2
_exptl_temperature 77
_adsnt_material_id COF-5
_simltn_code RASPA 2.0.41
_simltn_date 2023-03-06T17:26:09.500000
_simltn_size 2.2.4
_simltn_forcefield_adsorptive mm3
_simltn_forcefield_adsorbent mm3
_units_temperature K
_units_pressure Pa
_units_loading cm^3/g

loop_
_adsorp_pressure
_adsorp_amount_absolute
1.0 0.04520759110199999
10.0 0.7534598517000001
101.0 7.180472386701
1013.0 81.192833619482
10130.0 275.69095973797
3.0 0.17329576589100001
30.0 2.0042032055220003
3039.0 183.33938571478402
30390.0 354.93233234152905
304.0 21.978423874188003
5.0 0.512352699156
50.0 3.797437652567999
5065.0 225.79684835823798
50650.0 402.5133219765571
507.0 38.999081924110996
7.0 0.519887297673
70.0 5.0632502034239995
709.0 56.411539096976014
7091.0 250.40484711484
70910.0 450.58406051517295
