data_COF-5_n2_77K_LP_dreiding_trappe
_audit_aif_version 63df4e8
_exptl_method GCMC
_exptl_adsorptive n2
_exptl_temperature 77
_adsnt_material_id COF-5
_simltn_code RASPA 2.0.41
_simltn_date 2023-03-15T16:51:21.700000
_simltn_size 2.2.4
_simltn_forcefield_adsorptive trappe
_simltn_forcefield_adsorbent dreiding
_units_temperature K
_units_pressure Pa
_units_loading cm^3/g

loop_
_adsorp_pressure
_adsorp_amount_absolute
1.0 77.613899323889
10.0 262.874607660513
101.0 301.353802286941
1013.0 382.53910130790996
10130.0 782.5434019783122
3.0 208.70084432308394
30.0 282.48716760036
3039.0 462.87299069645303
30390.0 825.7015822838039
304.0 328.82494848002506
5.0 236.910381170832
50.0 290.639603195758
5065.0 510.220407777434
50650.0 836.2048126165841
507.0 346.90798492091295
7.0 251.82135163606105
70.0 294.384298658707
709.0 363.6423282272159
7091.0 549.5284082407671
70910.0 847.001892291455
