data_COF-5_n2_77K_LP_dreiding_mm3
_audit_aif_version 63df4e8
_exptl_method GCMC
_exptl_adsorptive n2
_exptl_temperature 77
_adsnt_material_id COF-5
_simltn_code RASPA 2.0.41
_simltn_date 2023-03-06T16:13:57.700000256
_simltn_size 2.2.4
_simltn_forcefield_adsorptive mm3
_simltn_forcefield_adsorbent dreiding
_units_temperature K
_units_pressure Pa
_units_loading cm^3/g

loop_
_adsorp_pressure
_adsorp_amount_absolute
1.0 3.699487871847
10.0 42.299236074579014
101.0 204.602022729833
1013.0 308.097267959706
10130.0 395.4383339690721
3.0 11.686162299877
30.0 122.03789218025803
3039.0 351.225309871155
30390.0 466.3012330216929
304.0 255.07629819540205
5.0 19.152949430303998
50.0 163.410372637257
5065.0 368.215829527059
50650.0 519.525636945962
507.0 277.96640849012
7.0 28.232140643298994
70.0 184.97439359297698
709.0 292.899982750858
7091.0 380.323929343909
70910.0 568.063520592645
