data_COF-5_n2_77K_LP_uff_mm3
_audit_aif_version 63df4e8
_exptl_method GCMC
_exptl_adsorptive n2
_exptl_temperature 77
_adsnt_material_id COF-5
_simltn_code RASPA 2.0.41
_simltn_date 2023-03-06T17:59:23.049999872
_simltn_size 2.2.4
_simltn_forcefield_adsorptive mm3
_simltn_forcefield_adsorbent uff
_units_temperature K
_units_pressure Pa
_units_loading cm^3/g

loop_
_adsorp_pressure
_adsorp_amount_absolute
1.0 8.56683851383
10.0 96.05106189503802
101.0 252.469327108513
1013.0 344.157856462208
10130.0 409.12869947449997
3.0 26.469044590321
30.0 187.70945285465493
3039.0 373.829105422255
30390.0 481.995801732654
304.0 301.579840242454
5.0 45.10964132143499
50.0 214.73605773522402
5065.0 386.17831239162
50650.0 536.9983709069429
507.0 322.11915579988397
7.0 66.191447972066
70.0 233.42939665597802
709.0 333.97107926716103
7091.0 396.99799586210094
70910.0 587.698684328016
