data_COF-5_n2_77K_LP_dreiding_uff
_audit_aif_version 63df4e8
_exptl_method GCMC
_exptl_adsorptive n2
_exptl_temperature 77
_adsnt_material_id COF-5
_simltn_code RASPA 2.0.41
_simltn_date 2023-03-06T16:51:56.899999744
_simltn_size 2.2.4
_simltn_forcefield_adsorptive uff
_simltn_forcefield_adsorbent dreiding
_units_temperature K
_units_pressure Pa
_units_loading cm^3/g

loop_
_adsorp_pressure
_adsorp_amount_absolute
1.0 3.910456630322999
10.0 54.347059103316006
101.0 264.37399276539804
1013.0 362.17308151638406
10130.0 509.240909970215
3.0 13.373912367709998
30.0 179.526878865168
3039.0 407.04161568529
30390.0 803.4368436660151
304.0 315.533916696022
5.0 21.541417160197003
50.0 225.37491084129095
5065.0 438.83762142713204
50650.0 826.7413568791549
507.0 336.487635171855
7.0 34.244750259868006
70.0 247.09715836585798
709.0 350.12525848767007
7091.0 468.5013357886609
70910.0 836.7397691112911
