data_COF-5_n2_77K_LP_dreiding_dreiding
_audit_aif_version 63df4e8
_exptl_method GCMC
_exptl_adsorptive n2
_exptl_temperature 77
_adsnt_material_id COF-5
_simltn_code RASPA 2.0.41
_simltn_date 2023-03-06T15:46:26.750000128
_simltn_size 2.2.4
_simltn_forcefield_adsorptive dreiding
_simltn_forcefield_adsorbent dreiding
_units_temperature K
_units_pressure Pa
_units_loading cm^3/g

loop_
_adsorp_pressure
_adsorp_amount_absolute
1.0 3.978268016976
10.0 68.39155073903702
101.0 289.818331957403
1013.0 389.704504497593
10130.0 820.4575017159639
3.0 13.200616601815
30.0 218.13416166641093
3039.0 469.043826881892
30390.0 847.740282946121
304.0 342.01049588485404
5.0 24.374426202595
50.0 251.21858375467798
5065.0 554.606727641235
50650.0 862.018347135881
507.0 363.0320257473289
7.0 38.524402217537
70.0 272.05928325275204
709.0 374.99696819238795
7091.0 806.4808214668949
70910.0 872.144847542784
