data_COF-5_n2_77K_LP_mm3_trappe
_audit_aif_version 63df4e8
_exptl_method GCMC
_exptl_adsorptive n2
_exptl_temperature 77
_adsnt_material_id COF-5
_simltn_code RASPA 2.0.41
_simltn_date 2023-03-15T17:21:48.649999872
_simltn_size 2.2.4
_simltn_forcefield_adsorptive trappe
_simltn_forcefield_adsorbent mm3
_units_temperature K
_units_pressure Pa
_units_loading cm^3/g

loop_
_adsorp_pressure
_adsorp_amount_absolute
1.0 0.27878014512899996
10.0 3.586468894092
101.0 46.33778087972101
1013.0 259.96625263294703
10130.0 494.84982680270593
3.0 1.175397368652
30.0 9.968273837998
3039.0 338.83842990917094
30390.0 787.018953497418
304.0 175.22462311194803
5.0 1.7028192648420002
50.0 18.504973957841
5065.0 390.3223415760031
50650.0 806.684255626868
507.0 221.69049216645502
7.0 2.441209919508
70.0 29.942494506659
709.0 241.07701415074098
7091.0 443.27549995365996
70910.0 811.4687256851831
