data_COF-5_n2_77K_LP_uff_trappe
_audit_aif_version 63df4e8
_exptl_method GCMC
_exptl_adsorptive n2
_exptl_temperature 77
_adsnt_material_id COF-5
_simltn_code RASPA 2.0.41
_simltn_date 2023-03-15T20:47:30.449999872
_simltn_size 2.2.4
_simltn_forcefield_adsorptive trappe
_simltn_forcefield_adsorbent uff
_units_temperature K
_units_pressure Pa
_units_loading cm^3/g

loop_
_adsorp_pressure
_adsorp_amount_absolute
1.0 204.20268900843206
10.0 284.483836207369
101.0 323.29455316853796
1013.0 405.956633498839
10130.0 796.0001949296982
3.0 260.576555112828
30.0 297.277584489237
3039.0 477.821634154218
30390.0 837.530901955577
304.0 356.20567949090497
5.0 272.488755368214
50.0 308.06712956564206
5065.0 525.251931818906
50650.0 847.4690373995091
507.0 377.5964046807541
7.0 275.87932470087907
70.0 312.93448020765
709.0 388.853094865165
7091.0 566.44358191148
70910.0 858.10789050554
