data_COF-5_n2_77K_LP_uff_uff
_audit_aif_version 63df4e8
_exptl_method GCMC
_exptl_adsorptive n2
_exptl_temperature 77
_adsnt_material_id COF-5
_simltn_code RASPA 2.0.41
_simltn_date 2023-03-06T18:09:48.150000128
_simltn_size 2.2.4
_simltn_forcefield_adsorptive uff
_simltn_forcefield_adsorbent uff
_units_temperature K
_units_pressure Pa
_units_loading cm^3/g

loop_
_adsorp_pressure
_adsorp_amount_absolute
1.0 8.928499242648
10.0 151.091304061919
101.0 311.970051597465
1013.0 386.050224216832
10130.0 536.990836308428
3.0 30.69595435835899
30.0 249.937702006784
3039.0 422.38205826593804
30390.0 822.8911770369601
304.0 352.50619161904507
5.0 62.167972363974
50.0 275.999878277167
5065.0 456.182267213331
50650.0 841.0344902659859
507.0 368.96175478025185
7.0 98.71077517155301
70.0 294.444575446843
709.0 377.031309791978
7091.0 488.618713829131
70910.0 848.6218309726099
