data_COF-102_n2_77K_LP_uff_dreiding
_audit_aif_version 63df4e8
_exptl_method GCMC
_exptl_adsorptive n2
_exptl_temperature 77
_adsnt_material_id COF-102
_simltn_code RASPA 2.0.41
_simltn_date 2023-03-06T19:03:36.500000
_simltn_size 2.2.2
_simltn_forcefield_adsorptive dreiding
_simltn_forcefield_adsorbent uff
_units_temperature K
_units_pressure Pa
_units_loading cm^3/g

loop_
_adsorp_pressure
_adsorp_amount_absolute
1.0 2.2871927150890006
10.0 26.895181806319005
101.0 1020.341471084901
1013.0 1204.1656296848853
10130.0 1283.0269322395081
3.0 6.795442452296999
30.0 844.877966337417
3039.0 1241.879508598947
30390.0 1317.742659739106
304.0 1127.58049722985
5.0 11.832777733239
50.0 942.957199006532
5065.0 1266.3276697655178
50650.0 1331.6201326465432
507.0 1157.308491218223
7.0 17.277949787456002
70.0 980.720679690314
709.0 1185.3555363437072
7091.0 1269.221106332792
70910.0 1338.410063791087
