data_COF-102_n2_77K_LP_dreiding_dreiding
_audit_aif_version 63df4e8
_exptl_method GCMC
_exptl_adsorptive n2
_exptl_temperature 77
_adsnt_material_id COF-102
_simltn_code RASPA 2.0.41
_simltn_date 2023-03-06T18:17:49.350000128
_simltn_size 2.2.2
_simltn_forcefield_adsorptive dreiding
_simltn_forcefield_adsorbent dreiding
_units_temperature K
_units_pressure Pa
_units_loading cm^3/g

loop_
_adsorp_pressure
_adsorp_amount_absolute
1.0 1.1298180881720001
10.0 11.689483731807998
101.0 926.335094840979
1013.0 1126.643574912832
10130.0 1239.493112344415
3.0 3.444567341994
30.0 40.833279098974
3039.0 1208.4368931889599
30390.0 1261.7477730275928
304.0 1036.5171593229322
5.0 5.450683361979
50.0 100.40500453842502
5065.0 1214.4276847101648
50650.0 1271.74528528101
507.0 1069.1055220320989
7.0 7.952817079217001
70.0 869.6678285843078
709.0 1098.083978166858
7091.0 1225.8581369778458
70910.0 1282.0789873069991
