data_COF-102_n2_77K_LP_uff_mm3
_audit_aif_version 63df4e8
_exptl_method GCMC
_exptl_adsorptive n2
_exptl_temperature 77
_adsnt_material_id COF-102
_simltn_code RASPA 2.0.41
_simltn_date 2023-03-06T19:08:33.749999872
_simltn_size 2.2.2
_simltn_forcefield_adsorptive mm3
_simltn_forcefield_adsorbent uff
_units_temperature K
_units_pressure Pa
_units_loading cm^3/g

loop_
_adsorp_pressure
_adsorp_amount_absolute
1.0 2.1383874059160006
10.0 24.260776703158005
101.0 562.969063760591
1013.0 900.2335413502548
10130.0 1051.2543962389232
3.0 6.641125835378001
30.0 91.151518830884
3039.0 975.2424397895992
30390.0 1123.843830577253
304.0 784.970051125401
5.0 11.237556496537
50.0 197.398509581325
5065.0 1004.8602076230329
50650.0 1154.508746882653
507.0 839.763472748026
7.0 16.214267392252
70.0 374.96733388823714
709.0 869.8827695864493
7091.0 1027.186515306926
70910.0 1169.758535419139
