data_COF-102_n2_77K_LP_mm3_dreiding
_audit_aif_version 63df4e8
_exptl_method GCMC
_exptl_adsorptive n2
_exptl_temperature 77
_adsnt_material_id COF-102
_simltn_code RASPA 2.0.41
_simltn_date 2023-03-06T18:42:33.799999744
_simltn_size 2.2.2
_simltn_forcefield_adsorptive dreiding
_simltn_forcefield_adsorbent mm3
_units_temperature K
_units_pressure Pa
_units_loading cm^3/g

loop_
_adsorp_pressure
_adsorp_amount_absolute
1.0 0.027556538735
10.0 0.523574235974
101.0 4.960176972484
1013.0 906.042459715795
10130.0 1074.589273240552
3.0 0.148805309169
30.0 1.251066858611
3039.0 1002.8926707572818
30390.0 1129.3992287864248
304.0 16.148131699286
5.0 0.214941002134
50.0 2.430486716518
5065.0 1037.272208484296
50650.0 1158.8351234641982
507.0 28.449370591024998
7.0 0.374768926798
70.0 3.3067846483230006
709.0 47.507472780831
7091.0 1054.131298882962
70910.0 1168.617694715471
