data_COF-102_n2_77K_LP_mm3_trappe
_audit_aif_version 63df4e8
_exptl_method GCMC
_exptl_adsorptive n2
_exptl_temperature 77
_adsnt_material_id COF-102
_simltn_code RASPA 2.0.41
_simltn_date 2023-03-15T18:28:14.000000256
_simltn_size 2.2.2
_simltn_forcefield_adsorptive trappe
_simltn_forcefield_adsorbent mm3
_units_temperature K
_units_pressure Pa
_units_loading cm^3/g

loop_
_adsorp_pressure
_adsorp_amount_absolute
1.0 0.08266961620500002
10.0 0.622777775422
101.0 9.093657782873999
1013.0 841.8247018454718
10130.0 1035.227513310087
3.0 0.23698623312199998
30.0 2.3147492538300005
3039.0 961.2382068039691
30390.0 1097.036829694888
304.0 30.279124763095997
5.0 0.374768926797
50.0 4.116946887156001
5065.0 992.5259008848042
50650.0 1116.800379276334
507.0 61.114891608654
7.0 0.4574385430089999
70.0 5.952212366976
709.0 127.46552557715
7091.0 1014.918344261662
70910.0 1132.480049817104
