data_COF-102_n2_77K_LP_dreiding_trappe
_audit_aif_version 63df4e8
_exptl_method GCMC
_exptl_adsorptive n2
_exptl_temperature 77
_adsnt_material_id COF-102
_simltn_code RASPA 2.0.41
_simltn_date 2023-03-15T18:17:46.849999872
_simltn_size 2.2.2
_simltn_forcefield_adsorptive trappe
_simltn_forcefield_adsorbent dreiding
_units_temperature K
_units_pressure Pa
_units_loading cm^3/g

loop_
_adsorp_pressure
_adsorp_amount_absolute
1.0 2.193500483387
10.0 24.205663625685993
101.0 849.34212561265
1013.0 1068.956716722922
10130.0 1181.778697615776
3.0 6.756863298064001
30.0 125.01850493739202
3039.0 1131.173869881016
30390.0 1215.75039856949
304.0 972.0073021419989
5.0 11.044660725388
50.0 679.8639010786211
5065.0 1160.444425326378
50650.0 1217.1943611992551
507.0 1012.835069933226
7.0 17.206302786740004
70.0 781.2444070882962
709.0 1043.869243857683
7091.0 1169.0971784894762
70910.0 1222.5348184062868
