data_COF-102_n2_77K_LP_uff_trappe
_audit_aif_version 63df4e8
_exptl_method GCMC
_exptl_adsorptive n2
_exptl_temperature 77
_adsnt_material_id COF-102
_simltn_code RASPA 2.0.41
_simltn_date 2023-03-15T19:00:27.499999744
_simltn_size 2.2.2
_simltn_forcefield_adsorptive trappe
_simltn_forcefield_adsorbent uff
_units_temperature K
_units_pressure Pa
_units_loading cm^3/g

loop_
_adsorp_pressure
_adsorp_amount_absolute
1.0 4.932620433744
10.0 70.770702781745
101.0 951.108423164629
1013.0 1148.854145134024
10130.0 1223.63707995573
3.0 15.382059922422998
30.0 758.3779912451797
3039.0 1192.1179109495101
30390.0 1247.831720965915
304.0 1052.268476864411
5.0 28.6091985157
50.0 859.4884431752399
5065.0 1207.6708214120968
50650.0 1255.6798231979346
507.0 1098.624086326079
7.0 43.803873974714996
70.0 904.8465059346603
709.0 1118.415192446258
7091.0 1218.164351362768
70910.0 1261.1305065599072
