data_COF-102_n2_77K_LP_dreiding_mm3
_audit_aif_version 63df4e8
_exptl_method GCMC
_exptl_adsorptive n2
_exptl_temperature 77
_adsnt_material_id COF-102
_simltn_code RASPA 2.0.41
_simltn_date 2023-03-06T18:21:58.550000128
_simltn_size 2.2.2
_simltn_forcefield_adsorptive mm3
_simltn_forcefield_adsorbent dreiding
_units_temperature K
_units_pressure Pa
_units_loading cm^3/g

loop_
_adsorp_pressure
_adsorp_amount_absolute
1.0 0.9810127789909999
10.0 11.110796418353004
101.0 187.511223482854
1013.0 829.539996876974
10130.0 987.317715063707
3.0 3.075309722941
30.0 36.330540669521
3039.0 913.0859110167231
30390.0 1045.32422910294
304.0 667.072155797382
5.0 5.323923283795
50.0 65.986887657182
5065.0 948.2149865973482
50650.0 1076.6009005682788
507.0 754.0681485868669
7.0 7.715830846084
70.0 107.15084522099201
709.0 792.0135024263109
7091.0 967.1077495547302
70910.0 1096.149509147596
