data_COF-102_n2_77K_LP_mm3_uff
_audit_aif_version 63df4e8
_exptl_method GCMC
_exptl_adsorptive n2
_exptl_temperature 77
_adsnt_material_id COF-102
_simltn_code RASPA 2.0.41
_simltn_date 2023-03-06T18:58:42.100000256
_simltn_size 2.2.2
_simltn_forcefield_adsorptive uff
_simltn_forcefield_adsorbent mm3
_units_temperature K
_units_pressure Pa
_units_loading cm^3/g

loop_
_adsorp_pressure
_adsorp_amount_absolute
1.0 0.049601769723000004
10.0 0.451927235258
101.0 4.778303816826001
1013.0 75.108101978786
10130.0 1005.4333836287379
3.0 0.148805309169
30.0 1.3668043213040002
3039.0 906.825065415908
30390.0 1067.501731477663
304.0 15.04587014984
5.0 0.209429694388
50.0 2.452531947503
5065.0 957.1653503787988
50650.0 1095.196052907334
507.0 28.306076589600007
7.0 0.3472123880629999
70.0 3.2406489553530005
709.0 43.258254507739004
7091.0 980.6159648431219
70910.0 1112.3307086933562
