data_COF-102_n2_77K_LP_dreiding_uff
_audit_aif_version 63df4e8
_exptl_method GCMC
_exptl_adsorptive n2
_exptl_temperature 77
_adsnt_material_id COF-102
_simltn_code RASPA 2.0.41
_simltn_date 2023-03-06T18:33:48.850000128
_simltn_size 2.2.2
_simltn_forcefield_adsorptive uff
_simltn_forcefield_adsorbent dreiding
_units_temperature K
_units_pressure Pa
_units_loading cm^3/g

loop_
_adsorp_pressure
_adsorp_amount_absolute
1.0 1.2290216276189998
10.0 11.187954726817999
101.0 701.319422138457
1013.0 1032.0474887399491
10130.0 1194.4491941265778
3.0 3.516214342709
30.0 38.397281074717
3039.0 1112.931441237799
30390.0 1228.205954078156
304.0 927.696387854532
5.0 5.301878052809001
50.0 77.615747003767
5065.0 1145.6410527174091
50650.0 1245.5059490966041
507.0 975.1267023269139
7.0 7.787477846794001
70.0 147.207029927616
709.0 1005.5050306294559
7091.0 1169.543594416999
70910.0 1259.692055237887
