data_COF-102_n2_77K_LP_mm3_mm3
_audit_aif_version 63df4e8
_exptl_method GCMC
_exptl_adsorptive n2
_exptl_temperature 77
_adsnt_material_id COF-102
_simltn_code RASPA 2.0.41
_simltn_date 2023-03-06T18:48:59.750000128
_simltn_size 2.2.2
_simltn_forcefield_adsorptive mm3
_simltn_forcefield_adsorbent mm3
_units_temperature K
_units_pressure Pa
_units_loading cm^3/g

loop_
_adsorp_pressure
_adsorp_amount_absolute
1.0 0.038579154229000004
10.0 0.4574385430059999
101.0 4.800349047809
1013.0 61.627443229152995
10130.0 807.0703951916661
3.0 0.154316616917
30.0 1.4990757072380003
3039.0 560.555110967319
30390.0 894.1986593670828
304.0 15.156096304788
5.0 0.22596361762899997
50.0 2.4084414855290004
5065.0 713.2844712576198
50650.0 926.4508323036661
507.0 26.002349951271
7.0 0.32516715707599997
70.0 3.3894542645280006
709.0 38.265009688788
7091.0 765.3553068531261
70910.0 945.062518565954
