data_COF-102_n2_77K_LP_uff_uff
_audit_aif_version 63df4e8
_exptl_method GCMC
_exptl_adsorptive n2
_exptl_temperature 77
_adsnt_material_id COF-102
_simltn_code RASPA 2.0.41
_simltn_date 2023-03-06T19:16:02.249999872
_simltn_size 2.2.2
_simltn_forcefield_adsorptive uff
_simltn_forcefield_adsorbent uff
_units_temperature K
_units_pressure Pa
_units_loading cm^3/g

loop_
_adsorp_pressure
_adsorp_amount_absolute
1.0 2.1328760981730004
10.0 25.583490562481003
101.0 889.7675679383328
1013.0 1120.377218004264
10130.0 1236.472915698957
3.0 7.131632224878001
30.0 113.373111667576
3039.0 1196.477355377548
30390.0 1278.584818195277
304.0 1012.1682016958141
5.0 11.750108117028002
50.0 711.278355237635
5065.0 1223.113505719742
50650.0 1297.1854818420738
507.0 1056.8097944481017
7.0 16.115063852798002
70.0 823.995621283293
709.0 1087.86601360355
7091.0 1231.0608114912022
70910.0 1316.337276263567
