data_co2_des
_audit_aif_version 63df4e8
_exptl_method GCMC
_exptl_adsorptive co2
_exptl_temperature 298
_adsorp_pressure 10000
_simltn_code RASPA 2.0.41
_simltn_date 2023-04-01T00:36:19.393700608
_simltn_forcefield_adsorptive uff
_simltn_forcefield_adsorbent mm3
_units_temperature K
_units_pressure Pa
_units_loading mol/kg
_units_enthalpy kJ/mol

loop_
_adsnt_material_id
_simltn_size
_adsorp_amount_absolute
_adsorp_enthalpy
abf_28-04-05_28-04-05_16-04-05_03-02-05_03-02-05_03-02-05 1.1.1 0.249729927002 -4.841341819999656
abf_30-02-06_30-02-06_14-02-06_03-02-06_03-02-06_02-02-06 1.1.1 0.224021496123 -4.039257960193785
abf_30-02-06_30-02-06_14-02-06_04-02-06_04-02-06_02-02-06 1.1.1 0.2539847711879999 -4.317734837930922
abr_28-01-01_28-01-01_29-01-01_06-08-01_06-08-01_06-08-01 1.1.1 0.08305911825 -6.677506568961675
abr_28-01-01_29-01-01_28-01-01_07-08-01_07-08-01_07-08-01 1.1.1 0.08614587408 -6.3756144491692135
abr_28-02-06_29-02-06_29-02-06_04-02-06_04-02-06_04-02-06 1.1.1 0.1531401493159999 -5.876124390315973
abr_28-02-08_29-02-08_28-02-08_07-10-08_07-10-08_07-10-08 1.1.1 0.0649049988509999 -8.033686657809882
abr_28-03-12_28-03-12_29-03-12_06-12-12_06-12-12_06-12-12 1.1.1 0.103279644139 -9.43734066867164
abr_28-03-12_28-03-12_29-03-12_07-12-12_07-12-12_07-12-12 1.1.1 0.1208181159459999 -10.596039542850615
abr_28-03-12_29-03-12_29-03-12_09-12-12_09-12-12_09-12-12 1.1.1 0.122998311368 -12.289706413934407
abr_29-01-01_29-01-01_28-01-01_09-08-01_09-08-01_09-08-01 1.1.1 0.08325113563 -8.138486449651156
abr_29-01-01_29-01-01_29-01-01_06-08-01_06-08-01_07-08-01 1.1.1 0.073606022816 -8.549078784306031
abr_29-01-01_29-01-01_29-01-01_06-08-01_07-08-01_06-08-01 1.1.1 0.0960834269 -7.486955103211922
abr_29-01-01_29-01-01_29-01-01_06-08-01_07-08-01_07-08-01 1.1.1 0.101164162064 -7.898936812288293
abr_29-01-01_29-01-01_29-01-01_07-08-01_06-08-01_06-08-01 1.1.1 0.0748616096199999 -8.592459900954399
abr_29-01-01_29-01-01_29-01-01_07-08-01_06-08-01_07-08-01 1.1.1 0.076087418256 -7.030785757620087
abr_29-01-01_29-01-01_29-01-01_07-08-01_07-08-01_06-08-01 1.1.1 0.07143267047 -8.020843474594747
abr_29-01-01_29-01-01_29-01-01_08-08-01_08-08-01_09-08-01 1.1.1 0.08122046692 -6.381901590064967
abr_29-01-01_29-01-01_29-01-01_08-08-01_09-08-01_08-08-01 1.1.1 0.084737231828 -7.555490851016562
abr_29-01-01_29-01-01_29-01-01_08-08-01_09-08-01_09-08-01 1.1.1 0.084869631504 -9.382556463075424
abr_29-01-01_29-01-01_29-01-01_09-08-01_08-08-01_08-08-01 1.1.1 0.0918535650679999 -8.32596402923926
abr_29-01-01_29-01-01_29-01-01_09-08-01_08-08-01_09-08-01 1.1.1 0.078144050119 -7.428366779834425
abr_29-01-01_29-01-01_29-01-01_09-08-01_09-08-01_08-08-01 1.1.1 0.07845624036 -9.721995064280025
abr_29-01-01_29-01-01_29-01-01_09-08-01_09-08-01_09-08-01 1.1.1 0.087017270857 -8.253239501636743
abr_29-02-04_29-02-04_29-02-04_02-03-04_02-03-04_02-03-04 1.1.1 0.091141717748 -7.253935343306574
abr_29-02-06_29-02-06_29-02-06_04-02-06_03-02-06_03-02-06 1.1.1 0.150886763946 -4.945837982602667
abr_29-02-06_29-02-06_29-02-06_04-02-06_03-02-06_04-02-06 1.1.1 0.149369419089 -5.835145960030889
abr_29-02-08_28-02-08_29-02-08_06-10-08_06-10-08_06-10-08 1.1.1 0.073191385938 -6.173732353333624
abr_29-02-08_29-02-08_29-02-08_06-10-08_06-10-08_07-10-08 1.1.1 0.084838247442 -6.580912336824351
abr_29-02-08_29-02-08_29-02-08_06-10-08_07-10-08_06-10-08 1.1.1 0.075546101016 -7.574990465731676
abr_29-02-08_29-02-08_29-02-08_06-10-08_07-10-08_07-10-08 1.1.1 0.075704018842 -7.755627631045235
abr_29-02-08_29-02-08_29-02-08_07-10-08_06-10-08_06-10-08 1.1.1 0.079517059936 -7.4961838755386
abr_29-02-08_29-02-08_29-02-08_07-10-08_06-10-08_07-10-08 1.1.1 0.083878439521 -6.784366652328948
abr_29-02-08_29-02-08_29-02-08_07-10-08_07-10-08_06-10-08 1.1.1 0.080983864669 -7.601615580876491
abr_29-02-08_29-02-08_29-02-08_08-10-08_08-10-08_09-10-08 1.1.1 0.09226163496 -7.527670015108029
abr_29-02-08_29-02-08_29-02-08_08-10-08_09-10-08_08-10-08 1.1.1 0.09405672075 -7.04053813622632
abr_29-02-08_29-02-08_29-02-08_08-10-08_09-10-08_09-10-08 1.1.1 0.09323132547 -7.899245427432992
abr_29-02-08_29-02-08_29-02-08_09-10-08_08-10-08_08-10-08 1.1.1 0.092156718532 -8.150784788573127
abr_29-02-08_29-02-08_29-02-08_09-10-08_08-10-08_09-10-08 1.1.1 0.1258613342 -8.352943612829211
abr_29-02-08_29-02-08_29-02-08_09-10-08_09-10-08_08-10-08 1.1.1 0.0773732822759999 -7.848393128286522
abr_29-02-08_29-02-08_29-02-08_09-10-08_09-10-08_09-10-08 1.1.1 0.079619898375 -8.173366236386265
abr_29-02-08_29-02-08_29-02-08_10-10-08_10-10-08_10-10-08 1.1.1 0.111905388035 -5.956585794126303
abr_29-03-12_29-03-12_29-03-12_06-12-12_06-12-12_07-12-12 1.1.1 0.0994189839809999 -10.073143344566176
abr_29-03-12_29-03-12_29-03-12_06-12-12_07-12-12_06-12-12 1.1.1 0.0964036053179999 -11.399986331532082
abr_29-03-12_29-03-12_29-03-12_06-12-12_07-12-12_07-12-12 1.1.1 0.1052501767 -10.73164164493758
abr_29-03-12_29-03-12_29-03-12_07-12-12_06-12-12_06-12-12 1.1.1 0.1195430364699999 -10.440440428131422
abr_29-03-12_29-03-12_29-03-12_07-12-12_06-12-12_07-12-12 1.1.1 0.128333983536 -11.693411461582771
abr_29-03-12_29-03-12_29-03-12_07-12-12_07-12-12_06-12-12 1.1.1 0.1068565216289999 -11.578511061697958
abr_29-03-12_29-03-12_29-03-12_08-12-12_08-12-12_09-12-12 1.1.1 0.1255569855179999 -11.89074071088667
abr_29-03-12_29-03-12_29-03-12_08-12-12_09-12-12_08-12-12 1.1.1 0.1218469975579999 -11.732243789787502
abr_29-03-12_29-03-12_29-03-12_08-12-12_09-12-12_09-12-12 1.1.1 0.126447290946 -11.512312477916668
abr_29-03-12_29-03-12_29-03-12_09-12-12_08-12-12_08-12-12 1.1.1 0.11980905786 -11.513989026964728
abr_29-03-12_29-03-12_29-03-12_09-12-12_08-12-12_09-12-12 1.1.1 0.123442776087 -10.62950369961376
abr_29-03-12_29-03-12_29-03-12_09-12-12_09-12-12_08-12-12 1.1.1 0.13080205182 -12.855420683817512
abr_29-05-09_29-05-09_29-05-09_03-03-09_03-03-09_03-03-09 1.1.1 0.15879947426 -5.8566281237394495
abr_30-01-01_30-01-01_30-01-01_08-08-01_09-08-01_09-08-01 1.1.1 0.068922216533 -11.347290361900404
abr_30-02-08_30-02-08_30-02-08_08-10-08_09-10-08_09-10-08 1.1.1 0.1050161633639999 -12.97903073682213
abr_30-03-12_30-03-12_30-03-12_08-12-12_09-12-12_09-12-12 1.1.1 0.109090491124 -16.070218167770335
acs-a_29-02-08_10-10-08_10-10-08_10-10-08 1.1.1 0.146262305439 -5.184228095843984
acs-a_29-05-09_05-03-09_05-03-09_05-03-09 1.1.1 0.274595079954 -5.724306090674461
acs-a_30-01-01_09-08-01_09-08-01_08-08-01 1.1.1 0.0902251819339999 -11.23471709305718
acs-f_12-03-09_01-05-09_01-05-09_01-05-09 3.2.2 0.562848249796897 -34.72496067573646
acs-f_14-01-01_10-08-01_10-08-01_10-08-01 1.1.1 0.057465844752 -9.620619410935792
acs-f_14-02-04_02-03-04_02-03-04_02-03-04 1.1.1 0.0656272600319999 -7.516295925466304
acs-f_14-02-06_None_None_None 1.1.2 0.1064746663695 -13.056428978717612
acs-f_14-03-12_09-12-12_09-12-12_09-12-12 1.1.1 0.092491898007 -13.313886453827385
acs-f_16-01-01_06-08-01_06-08-01_06-08-01 1.1.1 0.063990268492 -9.579549805379235
acs-f_16-02-06_03-02-06_04-02-06_04-02-06 1.1.1 0.08568636664 -8.293812796823302
acs-f_16-02-06_05-02-06_05-02-06_05-02-06 1.1.1 0.119679672524 -7.830423037622749
acs-f_17-08-01_05-01-01_05-01-01_05-01-01 2.1.1 0.0950022420569999 -9.952170833409898
acs-f_17-12-12_01-03-12_01-03-12_01-03-12 2.2.1 0.3942831193125 -23.759757686120373
acs-f_33-11-02_03-01-02_03-01-02_03-01-02 2.2.1 0.0634341529395 -11.902286038738213
acs-f_33-11-02_04-01-02_04-01-02_03-01-02 2.2.1 0.120294989663 -14.308274173667511
acs-f_36-11-11_03-07-11_04-07-11_04-07-11 2.2.1 0.0800811891279999 -14.02204235055758
acs-g_11-03-12_09-12-12_09-12-12_09-12-12 1.1.2 0.1459523266875 -16.14926056736607
acs-g_35-11-03_02-01-03_02-01-03_01-01-03 1.1.5 0.2521986403271999 -21.723933427043825
aea-a_28-02-08_28-02-08_16-02-08_16-02-08_07-10-08_07-10-08_07-10-08_07-10-08_07-10-08_07-10-08_07-10-08_07-10-08_07-10-08 1.1.1 0.112692658947 -5.644476012159386
aea-a_28-04-05_28-04-05_16-04-05_16-04-05_02-02-05_02-02-05_02-02-05_02-02-05_02-02-05_02-02-05_02-02-05_02-02-05_02-02-05 1.1.1 0.150476652177 -6.232851874502116
aea-a_28-04-05_28-04-05_16-04-05_16-04-05_03-02-05_03-02-05_03-02-05_03-02-05_03-02-05_03-02-05_03-02-05_03-02-05_03-02-05 1.1.1 0.237611825088 -4.680434816178694
aea-a_30-01-01_30-01-01_11-01-01_11-01-01_08-08-01_08-08-01_08-08-01_08-08-01_08-08-01_08-08-01_08-08-01_08-08-01_08-08-01 1.1.1 0.0724099655589999 -8.02857269394099
aea-a_30-01-01_30-01-01_11-01-01_11-01-01_10-08-01_10-08-01_10-08-01_10-08-01_10-08-01_10-08-01_10-08-01_10-08-01_10-08-01 1.1.1 0.10248909734 -5.955596952482194
aea-a_30-02-06_30-02-06_11-02-06_11-02-06_02-02-06_02-02-06_02-02-06_02-02-06_02-02-06_02-02-06_02-02-06_02-02-06_02-02-06 1.1.1 0.0853076848319999 -6.238658756799334
aea-a_30-02-08_30-02-08_11-02-08_11-02-08_06-10-08_06-10-08_06-10-08_06-10-08_06-10-08_06-10-08_06-10-08_06-10-08_06-10-08 1.1.1 0.0803366119599999 -7.456870624856053
aea-a_30-05-09_30-05-09_11-05-09_11-05-09_04-03-09_04-03-09_04-03-09_04-03-09_04-03-09_04-03-09_04-03-09_04-03-09_04-03-09 1.1.1 0.163087997504 -4.971596620018758
afi_28-02-06_04-02-06_04-02-06_03-02-06_04-02-06 1.1.1 0.137048542371 -5.458709908763702
afi_30-03-09_03-05-09_03-05-09_03-05-09_03-05-09 1.1.1 0.13970055485 -7.550739672144042
afw-a_28-04-05_28-04-05_02-02-05_02-02-05_02-02-05_02-02-05_02-02-05_02-02-05 1.1.1 0.1898089548099999 -5.664405469208727
afw_28-02-04_02-03-04_01-03-04 1.1.1 0.101064655222 -6.46098342607374
afw_29-02-04_01-03-04_02-03-04 1.1.1 0.120350616336 -7.016170502102467
afw_29-02-08_06-10-08_06-10-08 1.1.1 0.0942059842349999 -8.190814444973592
afw_29-03-12_06-12-12_06-12-12 1.1.1 0.1168457393599999 -10.976287450539813
afw_30-05-09_01-03-09_02-03-09 1.1.1 0.10538449434 -7.0606222914804055
afx_29-03-12_29-03-12_08-12-12_08-12-12_08-12-12_08-12-12_08-12-12_08-12-12_08-12-12 1.1.1 0.1119078597719999 -9.111145821598866
afy_30-01-01_30-01-01_09-08-01_09-08-01_09-08-01_09-08-01_09-08-01 1.1.1 0.08114209644 -10.847716083690214
afy_30-03-12_30-03-12_09-12-12_09-12-12_09-12-12_09-12-12_09-12-12 1.1.1 0.113122408355 -15.91918575785125
agw-a_28-02-04_16-02-04_16-02-04_16-02-04_02-03-04_02-03-04_02-03-04_02-03-04_02-03-04_02-03-04_02-03-04_02-03-04 1.1.1 0.169910279529 -3.658599653227175
agw-a_28-02-06_16-02-06_16-02-06_16-02-06_01-02-06_01-02-06_01-02-06_01-02-06_01-02-06_01-02-06_01-02-06_01-02-06 1.1.1 0.295172715465 -3.117401241851147
agw-a_28-02-06_16-02-06_16-02-06_16-02-06_03-02-06_03-02-06_03-02-06_03-02-06_03-02-06_03-02-06_03-02-06_03-02-06 1.1.1 0.3963935621909999 -3.2403934068963105
agw-a_28-02-08_16-02-08_16-02-08_16-02-08_06-10-08_06-10-08_06-10-08_06-10-08_06-10-08_06-10-08_06-10-08_06-10-08 1.1.1 0.1762956895569999 -3.977576287162203
agw-a_28-02-08_16-02-08_16-02-08_16-02-08_09-10-08_09-10-08_09-10-08_09-10-08_09-10-08_09-10-08_09-10-08_09-10-08 1.1.1 0.163024345464 -4.62940152320052
agw-a_28-03-04_16-03-04_16-03-04_16-03-04_01-02-04_01-02-04_01-02-04_01-02-04_01-02-04_01-02-04_01-02-04_01-02-04 1.1.1 0.198365287974 -4.247543188660703
agw-a_28-03-12_16-03-12_16-03-12_16-03-12_09-12-12_09-12-12_09-12-12_09-12-12_09-12-12_09-12-12_09-12-12_09-12-12 1.1.1 0.169895906176 -6.465634097970583
agw-a_30-03-09_11-03-09_11-03-09_11-03-09_02-05-09_02-05-09_02-05-09_02-05-09_02-05-09_02-05-09_02-05-09_02-05-09 1.1.1 0.184417783368 -7.145810743314826
agw-a_30-03-09_12-03-09_12-03-09_12-03-09_01-05-09_01-05-09_01-05-09_01-05-09_01-05-09_01-05-09_01-05-09_01-05-09 1.1.1 0.213519845512 -7.05123770217986
agw-a_30-03-12_12-03-12_12-03-12_12-03-12_06-12-12_06-12-12_06-12-12_06-12-12_06-12-12_06-12-12_06-12-12_06-12-12 1.1.1 0.15936320414 -14.521404492850731
alb-x-d_28-01-01_29-01-01_28-01-01_07-08-01_07-08-01_07-08-01_07-08-01 1.1.1 0.08596872 -7.496100487701396
alb-x-d_28-02-08_29-02-08_28-02-08_10-10-08_10-10-08_10-10-08_10-10-08 1.1.1 0.1057952339779999 -5.556253831538628
alb-x-d_28-03-12_29-03-12_28-03-12_09-12-12_09-12-12_09-12-12_09-12-12 1.1.1 0.1021748406 -9.582628831960564
alb-x-d_29-02-06_29-02-06_29-02-06_01-02-06_01-02-06_02-02-06_02-02-06 1.1.1 0.113517023294 -6.80704812425875
alb-x-d_29-02-06_29-02-06_29-02-06_03-02-06_03-02-06_04-02-06_04-02-06 1.1.1 0.1508922818069999 -5.390860990371376
alb-x-d_29-02-06_29-02-06_29-02-06_03-02-06_04-02-06_04-02-06_04-02-06 1.1.1 0.164345306872 -5.520732884618013
alb-x-d_29-02-06_29-02-06_29-02-06_04-02-06_03-02-06_04-02-06_03-02-06 1.1.1 0.169675040142 -5.007400835335149
alb-x-d_29-03-12_28-03-12_29-03-12_06-12-12_06-12-12_06-12-12_06-12-12 1.1.1 0.111798049905 -10.373718848455516
ana-b_28-02-04_30-02-04_02-03-04_02-03-04_02-03-04_02-03-04 1.1.1 0.064304974748 -7.297301708234342
ana-b_28-02-06_30-02-06_05-02-06_05-02-06_05-02-06_05-02-06 1.1.1 0.17048078688 -4.844409035762363
ana-b_28-02-08_29-02-08_09-10-08_09-10-08_09-10-08_09-10-08 1.1.1 0.08046199302 -8.872751142431506
ana-b_28-02-08_30-02-08_09-10-08_09-10-08_09-10-08_09-10-08 1.1.1 0.081011665022 -10.824961827627948
ana-b_28-03-12_30-03-12_06-12-12_06-12-12_06-12-12_06-12-12 1.1.1 0.0935409611109999 -11.390646147256367
ana-b_28-03-12_30-03-12_07-12-12_07-12-12_07-12-12_07-12-12 1.1.1 0.0829014824159999 -11.413240633344438
ana-b_28-03-12_30-03-12_09-12-12_09-12-12_09-12-12_09-12-12 1.1.1 0.106456029575 -12.322513882122532
ana-b_28-04-05_30-04-05_02-02-05_02-02-05_02-02-05_02-02-05 1.1.1 0.1183986599249999 -8.824964623488059
ana-b_28-05-09_30-05-09_02-03-09_02-03-09_02-03-09_02-03-09 1.1.1 0.10329556915 -8.076981591121134
ana-b_28-05-09_30-05-09_03-03-09_03-03-09_03-03-09_03-03-09 1.1.1 0.1382107194479999 -6.527675630213679
ana-b_29-01-01_30-01-01_10-08-01_10-08-01_10-08-01_10-08-01 1.1.1 0.0950281843 -6.479636885167981
ana-b_29-02-04_30-02-04_05-03-04_05-03-04_05-03-04_05-03-04 1.1.1 0.13551224327 -6.657528574878898
ana-b_29-02-05_30-02-05_01-04-05_01-04-05_01-04-05_01-04-05 1.1.1 0.133199835225 -8.889073240677972
ana-b_29-02-05_30-02-05_03-04-05_03-04-05_03-04-05_03-04-05 1.1.1 0.164489796945 -9.140497827831034
ana-b_29-03-04_30-03-04_03-02-04_03-02-04_03-02-04_03-02-04 1.1.1 0.1075879956419999 -7.126344764159338
ana-b_29-03-09_30-03-09_02-05-09_02-05-09_02-05-09_02-05-09 1.1.1 0.0978626165579999 -7.57602059877295
ana-b_29-03-09_30-03-09_03-05-09_03-05-09_03-05-09_03-05-09 1.1.1 0.152220063996 -7.219469846872133
ana-b_29-03-09_30-03-09_04-05-09_04-05-09_04-05-09_04-05-09 1.1.1 0.13819321242 -7.434026431788165
ana-b_29-03-12_28-03-12_10-12-12_10-12-12_10-12-12_10-12-12 1.1.1 0.125052326828 -8.651585394870862
ana-b_29-03-12_30-03-12_09-12-12_09-12-12_09-12-12_09-12-12 1.1.1 0.099634723426 -12.571693548865833
ana-b_29-05-09_30-05-09_05-03-09_05-03-09_05-03-09_05-03-09 1.1.1 0.18076747104 -4.953204314403494
ana-b_30-01-01_28-01-01_09-08-01_09-08-01_09-08-01_09-08-01 1.1.1 0.070510258264 -9.4981622557657
ana-b_30-01-01_28-01-01_10-08-01_10-08-01_10-08-01_10-08-01 1.1.1 0.080092392952 -5.325450470101546
ana-b_30-02-05_28-02-05_03-04-05_03-04-05_03-04-05_03-04-05 1.1.1 0.158139971598 -6.0438332962224885
ana-b_30-02-05_29-02-05_02-04-05_02-04-05_02-04-05_02-04-05 1.1.1 0.1084624287119999 -8.495927890873421
ana-b_30-02-05_29-02-05_04-04-05_04-04-05_04-04-05_04-04-05 1.1.1 0.143299600356 -7.076423164272443
ana-b_30-02-08_28-02-08_06-10-08_06-10-08_06-10-08_06-10-08 1.1.1 0.0616683518399999 -7.1726586666007055
ana-b_30-02-08_29-02-08_09-10-08_09-10-08_09-10-08_09-10-08 1.1.1 0.0830260374459999 -9.930227080802783
ana-b_30-03-04_28-03-04_03-02-04_03-02-04_03-02-04_03-02-04 1.1.1 0.086371569768 -6.485942095095253
ana-b_30-03-09_29-03-09_01-05-09_01-05-09_01-05-09_01-05-09 1.1.1 0.121700379402 -9.5490278676831
ana-b_30-03-12_28-03-12_10-12-12_10-12-12_10-12-12_10-12-12 1.1.1 0.1070003572139999 -10.209767486149874
ana-b_30-03-12_29-03-12_06-12-12_06-12-12_06-12-12_06-12-12 1.1.1 0.0965026572659999 -10.807168422001949
ana-b_30-03-12_29-03-12_07-12-12_07-12-12_07-12-12_07-12-12 1.1.1 0.0994126089059999 -11.51834713428334
ana-b_30-03-12_29-03-12_10-12-12_10-12-12_10-12-12_10-12-12 1.1.1 0.1248782740439999 -9.53255626549469
ana-b_30-04-05_28-04-05_01-02-05_01-02-05_01-02-05_01-02-05 1.1.1 0.13165762784 -8.120638108505558
ana-b_30-04-05_28-04-05_04-02-05_04-02-05_04-02-05_04-02-05 1.1.1 0.1383566156749999 -7.547285407841978
ana-b_31-02-05_29-02-05_02-04-05_02-04-05_02-04-05_02-04-05 1.1.1 0.122230976168 -8.298264789984023
ana-b_31-02-05_29-02-05_04-04-05_04-04-05_04-04-05_04-04-05 1.1.1 0.16895672288 -6.96309942281508
ana-f_11-01-01_13-01-01_06-08-01_06-08-01_06-08-01 1.1.1 0.171999033504 -3.542542398767127
ana-f_11-02-08_13-02-08_06-10-08_06-10-08_06-10-08 1.1.1 0.167706381112 -4.7647911004049215
ana-f_11-02-08_15-02-08_06-10-08_06-10-08_06-10-08 1.1.1 0.21793623264 -3.579792559407236
ana-f_11-03-04_15-02-04_None_None_None 1.1.1 0.161656942425 -4.972887120312734
ana-f_11-03-12_13-03-12_06-12-12_06-12-12_06-12-12 1.1.1 0.1779535656799999 -5.677992692606657
ana-f_11-04-05_12-02-05_None_None_None 1.1.1 0.165054599084 -13.374872868979914
ana-f_11-05-09_14-03-09_None_None_None 1.1.1 0.141044573544 -6.737335428719783
ana-f_12-01-01_12-01-01_10-08-01_10-08-01_10-08-01 1.1.1 0.14604936274 -5.227373301056597
ana-f_12-01-01_13-01-01_06-08-01_06-08-01_06-08-01 1.1.1 0.157936139199 -4.185431214303236
ana-f_12-01-01_14-01-01_06-08-01_06-08-01_06-08-01 1.1.1 0.172440613152 -5.388171594673955
ana-f_12-01-01_16-01-01_06-08-01_06-08-01_06-08-01 1.1.1 0.1414825566709999 -4.446682380816352
ana-f_12-01-01_16-01-01_07-08-01_07-08-01_07-08-01 1.1.1 0.1297821779019999 -5.525843358830005
ana-f_12-02-04_14-03-04_None_None_None 1.1.1 0.10610464332 -7.288426647466979
ana-f_12-02-04_32-02-04_01-03-04_01-03-04_01-03-04 1.1.1 0.194736736224 -5.997457964332542
ana-f_12-02-08_13-02-08_06-10-08_06-10-08_06-10-08 1.1.1 0.169640279982 -4.853243551549683
ana-f_12-02-08_15-02-08_06-10-08_06-10-08_06-10-08 1.1.1 0.203008146072 -3.766503138261768
ana-f_12-03-09_16-05-09_None_None_None 1.1.1 0.137538522828 -8.660515759567657
ana-f_12-03-09_32-05-09_None_None_None 1.1.1 0.157872261814 -8.089091272260061
ana-f_13-01-01_23-08-01_None_None_None 1.1.1 0.11441621214 -4.929324201732085
ana-f_13-02-04_12-02-04_02-03-04_02-03-04_02-03-04 1.1.1 0.16742713354 -4.930439795244348
ana-f_13-02-04_13-03-04_None_None_None 1.1.1 0.1777940103859999 -4.416361854714249
ana-f_13-05-09_12-03-09_None_None_None 1.1.1 0.160775337858 -7.525327531467189
ana-f_14-01-01_17-08-01_None_None_None 1.1.1 0.104200849506 -7.773085482656714
ana-f_14-01-03_35-11-03_None_None_None 1.1.1 0.154467696258 -13.607886891445736
ana-f_14-02-04_12-02-04_01-03-04_01-03-04_01-03-04 1.1.1 0.210019020597 -6.0424685012833645
ana-f_14-02-04_12-02-04_02-03-04_02-03-04_02-03-04 1.1.1 0.170065682752 -6.539879411446248
ana-f_14-02-04_16-03-04_None_None_None 1.1.1 0.153509650496 -5.605107483947522
ana-f_14-02-06_12-02-06_None_None_None 1.1.1 0.129596811264 -5.609947336310696
ana-f_14-02-08_12-02-08_06-10-08_06-10-08_06-10-08 1.1.1 0.164473561279 -4.850230717616683
ana-f_14-02-08_19-10-08_None_None_None 1.1.1 0.139902817776 -5.055399785822354
ana-f_14-03-04_14-02-04_None_None_None 1.1.1 0.170118605129 -4.734450338545387
ana-f_14-03-09_14-05-09_None_None_None 1.1.1 0.204682784139 -5.24994401789628
ana-f_14-03-12_12-03-12_06-12-12_06-12-12_06-12-12 1.1.1 0.172407958678 -5.403695269781529
ana-f_15-05-09_11-03-09_None_None_None 1.1.1 0.190368912398 -4.249265888045907
ana-f_16-01-01_11-01-01_07-08-01_07-08-01_07-08-01 1.1.1 0.129285544348 -4.553298105800798
ana-f_16-02-05_13-04-05_None_None_None 1.1.1 0.194049544832 -5.420470386774778
ana-f_16-02-05_14-04-05_None_None_None 1.1.1 0.18848666197 -5.665421917596597
ana-f_16-02-05_32-04-05_None_None_None 1.1.1 0.194761586544 -5.857536944910066
ana-f_16-02-06_32-02-06_None_None_None 1.1.1 0.179403988568 -5.410067540830321
ana-f_16-02-08_11-02-08_06-10-08_06-10-08_06-10-08 1.1.1 0.1310432010839999 -4.286820809639018
ana-f_16-03-04_15-02-04_None_None_None 1.1.1 0.203768821627 -4.325283544281133
ana-f_16-03-04_32-02-04_None_None_None 1.1.1 0.145914751496 -5.905931238795539
ana-f_16-03-12_12-03-12_06-12-12_06-12-12_06-12-12 1.1.1 0.157420715888 -6.620627852033845
ana-f_16-04-05_15-02-05_None_None_None 1.1.1 0.236672387721 -4.410804974808176
ana-f_17-08-01_20-08-01_01-01-01_01-01-01_01-01-01 1.1.1 0.176397011532 -3.949845693750421
ana-f_17-08-01_20-08-01_02-01-01_02-01-01_02-01-01 1.1.1 0.13767425049 -4.803603080420369
ana-f_17-10-08_19-10-08_01-02-08_01-02-08_01-02-08 1.1.1 0.152665740084 -4.202726721943088
ana-f_17-10-08_23-10-08_02-02-08_02-02-08_02-02-08 1.1.1 0.136789609545 -6.407606599979592
ana-f_17-12-12_20-12-12_02-03-12_02-03-12_02-03-12 1.1.1 0.160795489736 -7.354586833003085
ana-f_17-12-12_23-12-12_01-03-12_01-03-12_01-03-12 1.1.1 0.166767135381 -6.798445054641834
ana-f_18-08-01_32-01-01_None_None_None 1.1.1 0.125617797837 -5.454998486918333
ana-f_18-10-08_17-10-08_01-02-08_01-02-08_01-02-08 1.1.1 0.120746737708 -5.356787139549517
ana-f_18-10-08_32-02-08_None_None_None 1.1.1 0.1331279159599999 -7.059511299998187
ana-f_18-12-12_17-12-12_01-03-12_01-03-12_01-03-12 1.1.1 0.172256900162 -8.243024297709857
ana-f_19-08-01_18-08-01_02-01-01_02-01-01_02-01-01 1.1.1 0.145695791696 -4.252966327327616
ana-f_20-08-01_14-01-01_None_None_None 1.1.1 0.163049288424 -4.507500637790135
ana-f_20-12-12_12-03-12_None_None_None 1.1.1 0.122998273972 -8.853832100687537
ana-f_23-08-01_17-08-01_01-01-01_01-01-01_01-01-01 1.1.1 0.13643378793 -4.646904182141006
ana-f_23-10-08_23-10-08_01-02-08_01-02-08_01-02-08 1.1.1 0.180942699668 -3.895172614945456
ana-f_23-12-12_12-03-12_None_None_None 1.1.1 0.2015454825 -16.247562328596292
ana-f_23-12-12_17-12-12_02-03-12_02-03-12_02-03-12 1.1.1 0.14736793136 -6.9743610621111785
ana-f_32-01-01_12-01-01_06-08-01_06-08-01_06-08-01 1.1.1 0.1744951063679999 -4.890056927284372
ana-f_32-01-02_33-11-02_None_None_None 1.1.1 0.1125644672679999 -8.979049396271192
ana-f_32-02-08_17-10-08_None_None_None 1.1.1 0.1173406345599999 -7.070181256202912
ana-f_32-02-08_23-10-08_None_None_None 1.1.1 0.1335232063999999 -6.426224462819243
ana-f_32-05-09_14-03-09_None_None_None 1.1.1 0.2119980449279999 -4.724748082336698
ana-f_32-06-10_34-11-10_None_None_None 1.1.1 0.117648770708 -9.984092151758574
ana-f_32-07-11_36-11-11_None_None_None 1.1.1 0.1286995413599999 -11.934863230474422
ana-f_33-11-02_33-11-02_01-01-02_02-01-02_02-01-02 1.1.1 0.070932930486 -8.098081045920171
ana-f_33-11-02_33-11-02_02-01-02_01-01-02_01-01-02 1.1.1 0.091264858056 -10.13864164002012
ana-f_34-11-10_34-11-10_01-06-10_01-06-10_02-06-10 1.1.1 0.0700753303349999 -8.429290738370922
ana-f_34-11-10_34-11-10_01-06-10_02-06-10_02-06-10 1.1.1 0.073543424161 -9.846969386645425
ana-f_35-11-03_32-01-03_None_None_None 1.1.1 0.1420946922119999 -10.615769263785737
ana-f_35-11-03_35-11-03_01-01-03_01-01-03_01-01-03 1.1.1 0.1329963118079999 -10.772077403010822
ana-f_35-11-03_35-11-03_01-01-03_01-01-03_02-01-03 1.1.1 0.1149188834789999 -10.077741326733996
ana-f_35-11-03_35-11-03_02-01-03_02-01-03_02-01-03 1.1.1 0.0796472825 -8.126287195910372
ana-f_35-11-03_35-11-03_04-01-03_03-01-03_04-01-03 1.1.1 0.152442769595 -6.817154286137407
ana-f_36-11-11_36-11-11_01-07-11_01-07-11_02-07-11 1.1.1 0.06453156729 -6.080042600974748
ana-f_36-11-11_36-11-11_01-07-11_02-07-11_02-07-11 1.1.1 0.057500925753 -7.718429787399697
ana-f_36-11-11_36-11-11_04-07-11_03-07-11_03-07-11 1.1.1 0.122870009134 -5.426784049227658
ana_30-02-08_07-10-08 1.1.1 0.052853847424 -8.883608052129183
asf-a_16-04-05_28-04-05_28-04-05_01-02-05_01-02-05_01-02-05_01-02-05_01-02-05_01-02-05_01-02-05_01-02-05 1.1.1 0.338969224787 -4.327148491593273
asf-a_16-04-05_28-04-05_28-04-05_02-02-05_02-02-05_02-02-05_02-02-05_02-02-05_02-02-05_02-02-05_02-02-05 1.1.1 0.3013269559559999 -4.813455075728945
asf_31-04-05_29-04-05_01-02-05_01-02-05 1.1.1 0.17790715033 -6.849270183227249
asn_11-01-01_11-01-01_11-01-01_11-01-01_28-01-01_28-01-01_07-08-01_07-08-01_07-08-01_07-08-01_07-08-01_07-08-01_07-08-01_07-08-01 1.1.1 0.063524787206 -6.006614330375281
asn_11-02-06_11-02-06_11-02-06_11-02-06_30-02-06_30-02-06_02-02-06_02-02-06_02-02-06_02-02-06_02-02-06_02-02-06_02-02-06_02-02-06 1.1.1 0.083535121656 -6.19630527885789
asn_11-03-09_11-03-09_11-03-09_11-03-09_29-03-09_29-03-09_04-05-09_04-05-09_04-05-09_04-05-09_04-05-09_04-05-09_04-05-09_04-05-09 1.1.1 0.160505698208 -6.268582011167674
asn_11-05-09_11-05-09_11-05-09_11-05-09_29-03-09_29-03-09_None_None_None_None_None_None_None_None 1.1.1 0.095226704325 -10.980860775756248
asn_12-02-04_12-02-04_12-02-04_12-02-04_29-03-04_29-03-04_None_None_None_None_None_None_None_None 1.1.1 0.071662578104 -9.311692659669005
asn_12-02-06_12-02-06_12-02-06_12-02-06_29-02-06_29-02-06_None_None_None_None_None_None_None_None 1.1.1 0.07014718086 -8.642322942790521
asn_12-03-04_12-03-04_12-03-04_12-03-04_29-03-04_29-03-04_03-02-04_03-02-04_03-02-04_03-02-04_03-02-04_03-02-04_03-02-04_03-02-04 1.1.1 0.1204389548039999 -6.519073659383294
asn_12-03-04_12-03-04_12-03-04_12-03-04_30-03-04_30-03-04_02-02-04_02-02-04_02-02-04_02-02-04_02-02-04_02-02-04_02-02-04_02-02-04 1.1.1 0.063362682264 -9.0286902793228
asn_12-03-09_12-03-09_12-03-09_12-03-09_29-03-09_29-03-09_01-05-09_01-05-09_01-05-09_01-05-09_01-05-09_01-05-09_01-05-09_01-05-09 1.1.1 0.145921839231 -5.917775985087532
asn_12-03-09_12-03-09_12-03-09_12-03-09_29-03-09_29-03-09_02-05-09_02-05-09_02-05-09_02-05-09_02-05-09_02-05-09_02-05-09_02-05-09 1.1.1 0.115761070176 -6.248346409447684
asn_12-03-09_12-03-09_12-03-09_12-03-09_29-03-09_29-03-09_04-05-09_04-05-09_04-05-09_04-05-09_04-05-09_04-05-09_04-05-09_04-05-09 1.1.1 0.13963817971 -6.187632074621217
asn_13-01-01_13-01-01_13-01-01_13-01-01_29-01-01_29-01-01_09-08-01_09-08-01_09-08-01_09-08-01_09-08-01_09-08-01_09-08-01_09-08-01 1.1.1 0.0807780591 -6.123532310494188
asn_13-02-08_13-02-08_13-02-08_13-02-08_29-02-08_29-02-08_08-10-08_08-10-08_08-10-08_08-10-08_08-10-08_08-10-08_08-10-08_08-10-08 1.1.1 0.1080754532439999 -6.536671516665854
asn_13-03-12_13-03-12_13-03-12_13-03-12_30-03-12_30-03-12_09-12-12_09-12-12_09-12-12_09-12-12_09-12-12_09-12-12_09-12-12_09-12-12 1.1.1 0.101198218136 -11.65909509282944
asn_14-02-08_14-02-08_14-02-08_14-02-08_29-02-08_29-02-08_07-10-08_07-10-08_07-10-08_07-10-08_07-10-08_07-10-08_07-10-08_07-10-08 1.1.1 0.0998480868239999 -6.398104335444016
asn_14-02-08_14-02-08_14-02-08_14-02-08_29-02-08_29-02-08_09-10-08_09-10-08_09-10-08_09-10-08_09-10-08_09-10-08_09-10-08_09-10-08 1.1.1 0.09703365516 -6.661994008507166
asn_14-02-08_14-02-08_14-02-08_14-02-08_30-02-08_30-02-08_10-10-08_10-10-08_10-10-08_10-10-08_10-10-08_10-10-08_10-10-08_10-10-08 1.1.1 0.1101522302399999 -5.7007786650186
asn_14-03-09_14-03-09_14-03-09_14-03-09_29-03-09_29-03-09_03-05-09_03-05-09_03-05-09_03-05-09_03-05-09_03-05-09_03-05-09_03-05-09 1.1.1 0.195827263464 -5.119836283154447
asn_14-03-09_14-03-09_14-03-09_14-03-09_29-03-09_29-03-09_04-05-09_04-05-09_04-05-09_04-05-09_04-05-09_04-05-09_04-05-09_04-05-09 1.1.1 0.195764064972 -5.003068341689958
asn_14-03-12_14-03-12_14-03-12_14-03-12_29-03-12_29-03-12_10-12-12_10-12-12_10-12-12_10-12-12_10-12-12_10-12-12_10-12-12_10-12-12 1.1.1 0.143899098075 -6.119735199395567
asn_14-03-12_14-03-12_14-03-12_14-03-12_30-03-12_30-03-12_09-12-12_09-12-12_09-12-12_09-12-12_09-12-12_09-12-12_09-12-12_09-12-12 1.1.1 0.1120551326999999 -9.552518074173188
asn_14-05-09_14-05-09_14-05-09_14-05-09_29-05-09_29-05-09_01-03-09_01-03-09_01-03-09_01-03-09_01-03-09_01-03-09_01-03-09_01-03-09 1.1.1 0.1684605072339999 -6.069844462158383
asn_14-05-09_14-05-09_14-05-09_14-05-09_29-05-09_29-05-09_02-03-09_02-03-09_02-03-09_02-03-09_02-03-09_02-03-09_02-03-09_02-03-09 1.1.1 0.150699566633 -5.530622008651297
asn_15-01-01_15-01-01_15-01-01_15-01-01_30-01-01_30-01-01_10-08-01_10-08-01_10-08-01_10-08-01_10-08-01_10-08-01_10-08-01_10-08-01 1.1.1 0.138551875676 -4.850682097786981
asn_15-02-04_15-02-04_15-02-04_15-02-04_30-02-04_30-02-04_02-03-04_02-03-04_02-03-04_02-03-04_02-03-04_02-03-04_02-03-04_02-03-04 1.1.1 0.091935804036 -4.679344220167064
asn_15-02-04_15-02-04_15-02-04_15-02-04_30-02-04_30-02-04_04-03-04_04-03-04_04-03-04_04-03-04_04-03-04_04-03-04_04-03-04_04-03-04 1.1.1 0.142430226168 -4.938524147050365
asn_15-02-06_15-02-06_15-02-06_15-02-06_29-02-06_29-02-06_04-02-06_04-02-06_04-02-06_04-02-06_04-02-06_04-02-06_04-02-06_04-02-06 1.1.1 0.2218027641499999 -4.029259682866827
asn_15-02-06_15-02-06_15-02-06_15-02-06_29-02-06_29-02-06_05-02-06_05-02-06_05-02-06_05-02-06_05-02-06_05-02-06_05-02-06_05-02-06 1.1.1 0.304554487366 -4.119537562494193
asn_15-02-08_15-02-08_15-02-08_15-02-08_29-02-08_29-02-08_07-10-08_07-10-08_07-10-08_07-10-08_07-10-08_07-10-08_07-10-08_07-10-08 1.1.1 0.12148305232 -5.008008841289292
asn_15-02-08_15-02-08_15-02-08_15-02-08_29-02-08_29-02-08_09-10-08_09-10-08_09-10-08_09-10-08_09-10-08_09-10-08_09-10-08_09-10-08 1.1.1 0.118557958232 -4.71622113948399
asn_15-02-08_15-02-08_15-02-08_15-02-08_30-02-08_30-02-08_10-10-08_10-10-08_10-10-08_10-10-08_10-10-08_10-10-08_10-10-08_10-10-08 1.1.1 0.14008013376 -4.591086143359982
asn_15-03-04_15-03-04_15-03-04_15-03-04_30-03-04_30-03-04_03-02-04_03-02-04_03-02-04_03-02-04_03-02-04_03-02-04_03-02-04_03-02-04 1.1.1 0.149773221454 -4.986858592718189
asn_15-03-09_15-03-09_15-03-09_15-03-09_30-03-09_30-03-09_04-05-09_04-05-09_04-05-09_04-05-09_04-05-09_04-05-09_04-05-09_04-05-09 1.1.1 0.1963524639959999 -5.585653516283081
asn_15-03-12_15-03-12_15-03-12_15-03-12_29-03-12_29-03-12_07-12-12_07-12-12_07-12-12_07-12-12_07-12-12_07-12-12_07-12-12_07-12-12 1.1.1 0.125337326289 -7.434128594505358
asn_15-03-12_15-03-12_15-03-12_15-03-12_29-03-12_29-03-12_09-12-12_09-12-12_09-12-12_09-12-12_09-12-12_09-12-12_09-12-12_09-12-12 1.1.1 0.1214422513919999 -7.741332982926681
asn_15-03-12_15-03-12_15-03-12_15-03-12_29-03-12_29-03-12_10-12-12_10-12-12_10-12-12_10-12-12_10-12-12_10-12-12_10-12-12_10-12-12 1.1.1 0.1694527814749999 -6.257556523618532
asn_15-03-12_15-03-12_15-03-12_15-03-12_30-03-12_30-03-12_08-12-12_08-12-12_08-12-12_08-12-12_08-12-12_08-12-12_08-12-12_08-12-12 1.1.1 0.117496211 -8.202767034031513
asn_15-04-05_15-04-05_15-04-05_15-04-05_29-04-05_29-04-05_03-02-05_03-02-05_03-02-05_03-02-05_03-02-05_03-02-05_03-02-05_03-02-05 1.1.1 0.2393171574 -4.834732369433291
asn_15-05-09_15-05-09_15-05-09_15-05-09_29-05-09_29-05-09_01-03-09_01-03-09_01-03-09_01-03-09_01-03-09_01-03-09_01-03-09_01-03-09 1.1.1 0.1913287286399999 -5.6553456917866
asn_16-01-01_16-01-01_16-01-01_16-01-01_30-01-01_30-01-01_06-08-01_06-08-01_06-08-01_06-08-01_06-08-01_06-08-01_06-08-01_06-08-01 1.1.1 0.079977299955 -6.4277249863595625
asn_16-02-04_16-02-04_16-02-04_16-02-04_29-02-04_29-02-04_05-03-04_05-03-04_05-03-04_05-03-04_05-03-04_05-03-04_05-03-04_05-03-04 1.1.1 0.204318746487 -4.841678986485526
asn_16-02-05_16-02-05_16-02-05_16-02-05_28-04-05_28-04-05_None_None_None_None_None_None_None_None 1.1.1 0.097862859936 -9.145897328435028
asn_16-02-06_16-02-06_16-02-06_16-02-06_28-02-06_28-02-06_04-02-06_04-02-06_04-02-06_04-02-06_04-02-06_04-02-06_04-02-06_04-02-06 1.1.1 0.1779867768 -4.825972018452314
asn_16-02-06_16-02-06_16-02-06_16-02-06_29-02-06_29-02-06_None_None_None_None_None_None_None_None 1.1.1 0.096551136042 -8.00579242944983
asn_16-02-08_16-02-08_16-02-08_16-02-08_29-02-08_29-02-08_07-10-08_07-10-08_07-10-08_07-10-08_07-10-08_07-10-08_07-10-08_07-10-08 1.1.1 0.09224898067 -6.0071910251171445
asn_16-02-08_16-02-08_16-02-08_16-02-08_30-02-08_30-02-08_08-10-08_08-10-08_08-10-08_08-10-08_08-10-08_08-10-08_08-10-08_08-10-08 1.1.1 0.081530639375 -6.23781093441836
asn_16-03-04_16-03-04_16-03-04_16-03-04_28-03-04_28-03-04_02-02-04_02-02-04_02-02-04_02-02-04_02-02-04_02-02-04_02-02-04_02-02-04 1.1.1 0.095541463178 -6.2513910198277145
asn_16-03-09_16-03-09_16-03-09_16-03-09_29-03-09_29-03-09_04-05-09_04-05-09_04-05-09_04-05-09_04-05-09_04-05-09_04-05-09_04-05-09 1.1.1 0.1700710901699999 -4.589556310760245
asn_16-03-12_16-03-12_16-03-12_16-03-12_29-03-12_29-03-12_08-12-12_08-12-12_08-12-12_08-12-12_08-12-12_08-12-12_08-12-12_08-12-12 1.1.1 0.107038698408 -7.4309442072828435
asn_16-03-12_16-03-12_16-03-12_16-03-12_29-03-12_29-03-12_10-12-12_10-12-12_10-12-12_10-12-12_10-12-12_10-12-12_10-12-12_10-12-12 1.1.1 0.128102315334 -7.742736486955688
asn_20-12-12_20-12-12_20-12-12_20-12-12_29-03-12_29-03-12_None_None_None_None_None_None_None_None 1.1.1 0.089307192924 -8.47354969844625
asn_32-01-01_32-01-01_32-01-01_32-01-01_29-01-01_29-01-01_09-08-01_09-08-01_09-08-01_09-08-01_09-08-01_09-08-01_09-08-01_09-08-01 1.1.1 0.083173992729 -7.219543231862024
asn_32-01-01_32-01-01_32-01-01_32-01-01_29-01-01_29-01-01_10-08-01_10-08-01_10-08-01_10-08-01_10-08-01_10-08-01_10-08-01_10-08-01 1.1.1 0.13208685854 -5.207284345271192
asn_32-02-04_32-02-04_32-02-04_32-02-04_29-02-04_29-02-04_05-03-04_05-03-04_05-03-04_05-03-04_05-03-04_05-03-04_05-03-04_05-03-04 1.1.1 0.1938500444 -4.33024386502788
asn_32-02-04_32-02-04_32-02-04_32-02-04_30-03-04_30-03-04_None_None_None_None_None_None_None_None 1.1.1 0.090713301244 -8.401565470997335
asn_32-02-08_32-02-08_32-02-08_32-02-08_30-02-08_30-02-08_09-10-08_09-10-08_09-10-08_09-10-08_09-10-08_09-10-08_09-10-08_09-10-08 1.1.1 0.082644147775 -8.163021400815772
asn_32-03-09_32-03-09_32-03-09_32-03-09_29-03-09_29-03-09_02-05-09_02-05-09_02-05-09_02-05-09_02-05-09_02-05-09_02-05-09_02-05-09 1.1.1 0.147712643701 -7.609786953550063
asn_32-03-09_32-03-09_32-03-09_32-03-09_30-03-09_30-03-09_03-05-09_03-05-09_03-05-09_03-05-09_03-05-09_03-05-09_03-05-09_03-05-09 1.1.1 0.184145470443 -5.834019627576895
asn_32-03-12_32-03-12_32-03-12_32-03-12_29-03-12_29-03-12_10-12-12_10-12-12_10-12-12_10-12-12_10-12-12_10-12-12_10-12-12_10-12-12 1.1.1 0.149787784096 -6.7225158987802205
asn_32-03-12_32-03-12_32-03-12_32-03-12_30-03-12_30-03-12_09-12-12_09-12-12_09-12-12_09-12-12_09-12-12_09-12-12_09-12-12_09-12-12 1.1.1 0.11844989156 -12.276925099262607
asn_32-05-09_32-05-09_32-05-09_32-05-09_29-03-09_29-03-09_None_None_None_None_None_None_None_None 1.1.1 0.110946089296 -8.752714264186835
asn_33-11-02_33-11-02_33-11-02_33-11-02_29-01-02_29-01-02_None_None_None_None_None_None_None_None 1.1.2 0.087178484424 -13.193848048120516
ast_28-01-01_29-01-01_06-08-01_07-08-01 1.1.1 0.0827725225559999 -6.984478984576049
ast_28-01-01_29-01-01_07-08-01_06-08-01 1.1.1 0.080648439949 -6.028151805144332
ast_28-01-01_29-01-01_09-08-01_08-08-01 1.1.1 0.094917366156 -6.819517620253087
ast_28-01-01_30-01-01_06-08-01_08-08-01 1.1.1 0.077334375024 -5.330189589941591
ast_28-01-01_30-01-01_06-08-01_09-08-01 1.1.1 0.0815317493769999 -7.19538929901322
ast_28-01-01_30-01-01_07-08-01_09-08-01 1.1.1 0.076366036909 -7.527115061087216
ast_28-02-04_28-02-04_01-03-04_02-03-04 1.1.1 0.0934163466 -5.726874204078071
ast_28-02-04_29-02-04_04-03-04_04-03-04 1.1.1 0.1168223877449999 -5.969895935208466
ast_28-02-04_29-02-04_05-03-04_05-03-04 1.1.1 0.168481838222 -5.022469491119187
ast_28-02-06_28-02-06_01-02-06_02-02-06 1.1.1 0.111469029971 -5.149780784454336
ast_28-02-06_29-02-06_03-02-06_04-02-06 1.1.1 0.159054382461 -5.284399384609738
ast_28-02-06_29-02-06_04-02-06_03-02-06 1.1.1 0.1553716108259999 -4.795964395081821
ast_28-02-08_29-02-08_06-10-08_07-10-08 1.1.1 0.08431070601 -6.821610528973293
ast_28-02-08_29-02-08_07-10-08_06-10-08 1.1.1 0.081030540927 -6.968633610470714
ast_28-02-08_29-02-08_08-10-08_09-10-08 1.1.1 0.086765936452 -6.971256411026247
ast_28-02-08_30-02-08_06-10-08_08-10-08 1.1.1 0.08631920376 -7.482300449277958
ast_28-02-08_30-02-08_06-10-08_09-10-08 1.1.1 0.0821797830779999 -7.971114933271992
ast_28-02-08_30-02-08_07-10-08_09-10-08 1.1.1 0.081243367072 -8.638658672114003
ast_28-03-09_28-03-09_02-05-09_01-05-09 1.1.1 0.134746768576 -6.108570681805545
ast_28-03-09_29-03-09_03-05-09_03-05-09 1.1.1 0.1721760367 -4.930734587339354
ast_28-03-12_29-03-12_06-12-12_07-12-12 1.1.1 0.1126155673799999 -10.21253135356222
ast_28-03-12_29-03-12_08-12-12_09-12-12 1.1.1 0.1199438384999999 -8.810622989829861
ast_28-03-12_29-03-12_09-12-12_08-12-12 1.1.1 0.118720215075 -12.473288012836068
ast_28-03-12_29-03-12_10-12-12_10-12-12 1.1.1 0.1252489181749999 -6.291320939320086
ast_28-03-12_30-03-12_06-12-12_09-12-12 1.1.1 0.117905468013 -11.77306657687188
ast_28-03-12_30-03-12_07-12-12_08-12-12 1.1.1 0.1019863677069999 -12.00267185683616
ast_28-03-12_30-03-12_07-12-12_09-12-12 1.1.1 0.106386549984 -10.851285073062822
ast_28-05-09_29-05-09_02-03-09_02-03-09 1.1.1 0.124162922311 -7.181679083375797
ast_29-01-01_28-01-01_06-08-01_06-08-01 1.1.1 0.090186791994 -7.304222746882169
ast_29-01-01_28-01-01_06-08-01_07-08-01 1.1.1 0.0808378807319999 -6.578664227648358
ast_29-01-01_28-01-01_08-08-01_09-08-01 1.1.1 0.086652357372 -6.583136395503916
ast_29-01-01_29-01-01_07-08-01_06-08-01 1.1.1 0.076947483376 -7.931208937086038
ast_29-01-01_29-01-01_09-08-01_08-08-01 1.1.1 0.090355502996 -8.516027603563856
ast_29-02-04_28-02-04_05-03-04_05-03-04 1.1.1 0.18803300824 -4.380396093628223
ast_29-02-05_29-02-05_01-04-05_01-04-05 1.1.1 0.147739150204 -6.468684324646238
ast_29-02-05_29-02-05_03-04-05_04-04-05 1.1.1 0.181582654344 -7.068133771693295
ast_29-02-06_28-02-06_02-02-06_01-02-06 1.1.1 0.1186219583039999 -5.190569560762991
ast_29-02-06_28-02-06_03-02-06_04-02-06 1.1.1 0.167459367425 -5.449753137191397
ast_29-02-06_28-02-06_04-02-06_04-02-06 1.1.1 0.168617744768 -5.4129058399655525
ast_29-02-06_28-02-06_05-02-06_05-02-06 1.1.1 0.213596856564 -4.7380251792154455
ast_29-02-06_29-02-06_03-02-06_03-02-06 1.1.1 0.15854764023 -5.040562860905959
ast_29-02-06_29-02-06_04-02-06_03-02-06 1.1.1 0.1592169147599999 -5.5238797068941485
ast_29-02-08_28-02-08_06-10-08_07-10-08 1.1.1 0.0864618980609999 -7.037836780693642
ast_29-02-08_28-02-08_09-10-08_08-10-08 1.1.1 0.092861396502 -7.806794139285063
ast_29-03-09_28-03-09_02-05-09_02-05-09 1.1.1 0.1231119936599999 -6.196232362679983
ast_29-03-09_28-03-09_04-05-09_04-05-09 1.1.1 0.1612868113119999 -5.441916488246552
ast_29-03-09_29-03-09_01-05-09_02-05-09 1.1.1 0.137144660422 -5.726882546568298
ast_29-03-12_28-03-12_07-12-12_06-12-12 1.1.1 0.125444596347 -8.849920945985263
ast_29-03-12_28-03-12_08-12-12_08-12-12 1.1.1 0.130244625704 -8.347919134106007
ast_29-03-12_29-03-12_08-12-12_09-12-12 1.1.1 0.107163847803 -9.689292618137118
ast_29-05-09_29-05-09_04-03-09_03-03-09 1.1.1 0.1668808267199999 -6.345288752511336
ast_30-01-01_28-01-01_08-08-01_07-08-01 1.1.1 0.067818532815 -8.439755142431471
ast_30-01-01_28-01-01_09-08-01_06-08-01 1.1.1 0.070266398279 -10.020475643694455
ast_30-01-01_28-01-01_10-08-01_08-08-01 1.1.1 0.07416386271 -6.790865962821182
ast_30-01-01_28-01-01_10-08-01_09-08-01 1.1.1 0.075533241781 -7.631740187011972
ast_30-02-08_28-02-08_08-10-08_06-10-08 1.1.1 0.077652653679 -7.726672140786261
ast_30-02-08_28-02-08_08-10-08_07-10-08 1.1.1 0.065100485403 -7.737405565762747
ast_30-02-08_28-02-08_09-10-08_06-10-08 1.1.1 0.07218199797 -9.94787759930284
ast_30-02-08_28-02-08_10-10-08_09-10-08 1.1.1 0.080869484021 -8.059189717379972
ast_30-03-12_28-03-12_08-12-12_07-12-12 1.1.1 0.108297257004 -12.542126790857107
ast_30-03-12_28-03-12_09-12-12_07-12-12 1.1.1 0.110419542093 -13.819803683823071
ast_30-03-12_30-03-12_09-12-12_08-12-12 1.1.1 0.100169309772 -14.013836080696771
ast_30-04-05_30-04-05_02-02-05_01-02-05 1.1.1 0.123281595936 -11.290999938738864
ast_30-04-05_30-04-05_03-02-05_04-02-05 1.1.1 0.147969994737 -8.076054011335504
asv_31-02-05_29-02-05_05-04-05_05-04-05_05-04-05 1.1.1 0.2253611737499999 -4.2807692109270565
asv_31-02-06_28-02-06_01-02-06_01-02-06_02-02-06 1.1.1 0.1103388846179999 -4.7174080560887575
asv_31-02-06_29-02-06_03-02-06_04-02-06_03-02-06 1.1.1 0.149324561246 -5.049675817484117
asv_31-02-06_29-02-06_03-02-06_04-02-06_04-02-06 1.1.1 0.154963030626 -4.5092384790229625
asv_31-02-06_29-02-06_04-02-06_04-02-06_03-02-06 1.1.1 0.140994909096 -4.965764941300837
asv_31-03-04_29-03-04_03-02-04_03-02-04_03-02-04 1.1.1 0.157228115148 -5.11080698523905
asv_31-03-12_28-03-12_09-12-12_09-12-12_09-12-12 1.1.2 0.166425194432 -17.51186719339395
atn_28-02-08_07-10-08_06-10-08_06-10-08 1.1.1 0.0686230639879999 -6.067884403217002
atn_29-01-01_07-08-01_06-08-01_07-08-01 1.1.1 0.084660468414 -6.988172314910603
atn_29-03-12_06-12-12_07-12-12_06-12-12 1.1.1 0.1080974781319999 -10.105172166079216
atn_29-03-12_08-12-12_09-12-12_09-12-12 1.1.1 0.1056412576089999 -10.420586589578663
ato_28-03-09_01-05-09_01-05-09_01-05-09_01-05-09 1.1.1 0.12903686113 -6.344677650260682
aww_30-02-06_30-02-06_01-02-06_01-02-06_01-02-06_01-02-06_01-02-06 1.1.1 0.1048747962779999 -6.687386372490757
baa_30-05-09_30-05-09_04-03-09_03-03-09 1.1.1 0.126572839122 -10.334002072542312
baa_31-03-12_28-03-12_06-12-12_06-12-12 1.1.1 0.109082930446 -10.006801971694962
baa_31-03-12_29-03-12_07-12-12_07-12-12 1.1.1 0.109341385663 -12.926291278544513
baa_31-03-12_29-03-12_09-12-12_08-12-12 1.1.1 0.126734304224 -14.20045364970171
bab_30-01-01_30-01-01_06-08-01_06-08-01_06-08-01_06-08-01 1.1.1 0.0664302281939999 -7.759835500844165
bab_30-02-05_30-02-05_05-04-05_05-04-05_05-04-05_05-04-05 1.1.1 0.1766049346879999 -7.056371880802492
bab_30-02-08_30-02-08_06-10-08_06-10-08_06-10-08_06-10-08 1.1.1 0.0718556922969999 -8.746455070440962
bac_29-02-06_29-02-06_03-02-06_04-02-06_04-02-06_04-02-06 1.1.1 0.139316478444 -4.937330394030746
bae_30-02-06_30-02-06_04-02-06_04-02-06_04-02-06_04-02-06_04-02-06 1.1.1 0.081511216454 -10.491650726479868
bag_30-02-06_30-02-06_01-02-06_01-02-06_01-02-06_01-02-06_01-02-06_01-02-06 1.1.1 0.2057266168249999 -3.590488352175444
bah_30-01-01_30-01-01_06-08-01_06-08-01_06-08-01_06-08-01_06-08-01_06-08-01_06-08-01 1.1.1 0.097684727679 -5.36580112726499
bah_30-02-08_30-02-08_06-10-08_06-10-08_06-10-08_06-10-08_06-10-08_06-10-08_06-10-08 1.1.1 0.1060413473019999 -7.00399176462005
bai_28-04-05_28-04-05_02-02-05_02-02-05_02-02-05 1.1.1 0.184270267671 -5.329362547027242
bai_28-04-05_29-04-05_01-02-05_01-02-05_01-02-05 1.1.1 0.21882414 -5.442449782103003
bai_28-04-05_29-04-05_04-02-05_04-02-05_04-02-05 1.1.1 0.2526592413069999 -4.702823792709935
bai_28-05-09_28-05-09_01-03-09_01-03-09_01-03-09 1.1.1 0.189303788178 -5.864567112092901
bai_28-05-09_29-05-09_02-03-09_02-03-09_02-03-09 1.1.1 0.180416374768 -5.539430517390573
bai_30-02-04_30-02-04_05-03-04_05-03-04_05-03-04 1.1.1 0.171813316254 -5.074846775278826
bai_30-02-06_30-02-06_03-02-06_04-02-06_03-02-06 1.1.1 0.1773297761949999 -4.164343294351783
bai_30-02-06_30-02-06_03-02-06_04-02-06_04-02-06 1.1.1 0.178762406508 -3.985339755855136
baj_29-02-08_29-02-08_06-10-08_06-10-08_06-10-08_06-10-08_06-10-08 1.1.1 0.152549463375 -5.36344587583429
baj_30-01-01_30-01-01_06-08-01_06-08-01_06-08-01_06-08-01_06-08-01 1.1.1 0.077809480056 -5.976023218218193
baj_30-02-08_30-02-08_06-10-08_06-10-08_06-10-08_06-10-08_06-10-08 1.1.1 0.087186971578 -7.425147256258598
bal_29-02-05_31-02-05_04-04-05_04-04-05_04-04-05_04-04-05 1.1.1 0.147263955727 -8.138651145680344
bal_29-02-06_29-02-06_03-02-06_03-02-06_04-02-06_03-02-06 1.1.1 0.102633260183 -5.984873777584478
bal_29-03-09_31-03-09_01-05-09_01-05-09_01-05-09_01-05-09 1.1.1 0.123703379925 -5.695789125002032
bal_29-03-09_31-03-09_02-05-09_02-05-09_02-05-09_02-05-09 1.1.1 0.112277320317 -6.573216585513084
bam_28-02-04_28-02-04_05-03-04_05-03-04_05-03-04_05-03-04_05-03-04_05-03-04_05-03-04 1.1.1 0.24071405491 -4.5015481925955845
bam_28-02-06_28-02-06_03-02-06_03-02-06_03-02-06_03-02-06_03-02-06_03-02-06_03-02-06 1.1.1 0.235220364855 -4.598194358105694
bam_28-03-12_28-03-12_06-12-12_06-12-12_06-12-12_06-12-12_06-12-12_06-12-12_06-12-12 1.1.1 0.12030061582 -8.444476122564474
bam_28-04-05_28-04-05_04-02-05_04-02-05_04-02-05_04-02-05_04-02-05_04-02-05_04-02-05 1.1.1 0.224826690088 -6.141464337288763
bam_28-05-09_28-05-09_03-03-09_03-03-09_03-03-09_03-03-09_03-03-09_03-03-09_03-03-09 1.1.1 0.2373582899519999 -4.841897652335684
bam_29-01-01_29-01-01_09-08-01_09-08-01_09-08-01_09-08-01_09-08-01_09-08-01_09-08-01 1.1.1 0.1026316838379999 -6.8113812565967695
bam_29-02-04_29-02-04_05-03-04_05-03-04_05-03-04_05-03-04_05-03-04_05-03-04_05-03-04 1.1.1 0.271865215282 -4.704201589693873
bam_29-02-05_29-02-05_01-04-05_01-04-05_01-04-05_01-04-05_01-04-05_01-04-05_01-04-05 1.1.1 0.2031958082399999 -5.381135226563458
bam_29-02-08_29-02-08_10-10-08_10-10-08_10-10-08_10-10-08_10-10-08_10-10-08_10-10-08 1.1.1 0.156078567708 -4.447637518180586
bam_29-03-09_29-03-09_01-05-09_01-05-09_01-05-09_01-05-09_01-05-09_01-05-09_01-05-09 1.1.1 0.1894662860119999 -5.20318361346579
bam_29-04-05_29-04-05_02-02-05_02-02-05_02-02-05_02-02-05_02-02-05_02-02-05_02-02-05 1.1.1 0.1726205324549999 -6.076293516043915
bam_29-05-09_29-05-09_04-03-09_04-03-09_04-03-09_04-03-09_04-03-09_04-03-09_04-03-09 1.1.1 0.230383498932 -5.356337347523566
bam_30-01-01_30-01-01_10-08-01_10-08-01_10-08-01_10-08-01_10-08-01_10-08-01_10-08-01 1.1.1 0.0891711534509999 -5.097509851386754
bam_30-02-08_30-02-08_10-10-08_10-10-08_10-10-08_10-10-08_10-10-08_10-10-08_10-10-08 1.1.1 0.1002059061119999 -6.01314288727089
bam_30-04-05_30-04-05_02-02-05_02-02-05_02-02-05_02-02-05_02-02-05_02-02-05_02-02-05 1.1.1 0.137317097965 -10.388547008424467
bam_30-04-05_30-04-05_03-02-05_03-02-05_03-02-05_03-02-05_03-02-05_03-02-05_03-02-05 1.1.1 0.2014198263 -7.500026801195245
ban_28-02-06_28-02-06_05-02-06_05-02-06_05-02-06_05-02-06_05-02-06_05-02-06 1.1.1 0.25995380066 -3.9621411814424015
ban_29-01-01_29-01-01_07-08-01_07-08-01_07-08-01_07-08-01_07-08-01_07-08-01 1.1.1 0.109467138992 -5.5871916920259945
ban_29-01-01_29-01-01_10-08-01_10-08-01_10-08-01_10-08-01_10-08-01_10-08-01 1.1.1 0.14467874064 -4.938482577531837
ban_29-02-08_29-02-08_07-10-08_07-10-08_07-10-08_07-10-08_07-10-08_07-10-08 1.1.1 0.1057476315959999 -6.3699889768146125
ban_29-03-12_29-03-12_06-12-12_06-12-12_06-12-12_06-12-12_06-12-12_06-12-12 1.1.1 0.135148528858 -8.677727646762413
ban_29-03-12_29-03-12_09-12-12_09-12-12_09-12-12_09-12-12_09-12-12_09-12-12 1.1.1 0.130098556588 -9.200134683895262
ban_29-03-12_29-03-12_10-12-12_10-12-12_10-12-12_10-12-12_10-12-12_10-12-12 1.1.1 0.162108031543 -7.359863940603123
ban_30-01-01_30-01-01_06-08-01_06-08-01_06-08-01_06-08-01_06-08-01_06-08-01 1.1.1 0.062624329732 -6.809506556397126
ban_30-02-06_30-02-06_04-02-06_04-02-06_04-02-06_04-02-06_04-02-06_04-02-06 1.1.1 0.1295694510389999 -5.601091478052537
ban_30-02-08_30-02-08_07-10-08_07-10-08_07-10-08_07-10-08_07-10-08_07-10-08 1.1.1 0.07432572288 -9.37676850824664
bao_28-02-06_29-02-06_03-02-06_03-02-06_04-02-06 1.1.1 0.150779313168 -5.96510882416403
bao_28-02-06_29-02-06_03-02-06_04-02-06_04-02-06 1.1.1 0.1446785586449999 -5.449387437492844
bao_29-01-01_29-01-01_06-08-01_06-08-01_07-08-01 1.1.1 0.103185192882 -8.38157256974126
bao_29-01-01_29-01-01_06-08-01_07-08-01_07-08-01 1.1.1 0.09396831774 -7.943720431051912
bao_29-01-01_29-01-01_07-08-01_06-08-01_06-08-01 1.1.1 0.0836528196899999 -7.63529488343687
bao_29-01-01_29-01-01_07-08-01_07-08-01_06-08-01 1.1.1 0.099834603873 -7.389088339450015
bao_29-01-01_29-01-01_08-08-01_08-08-01_09-08-01 1.1.1 0.08785767603 -6.6942347292287945
bao_29-01-01_29-01-01_08-08-01_09-08-01_09-08-01 1.1.1 0.083474804084 -6.377774216554629
bao_29-01-01_29-01-01_09-08-01_08-08-01_08-08-01 1.1.1 0.1116423760919999 -7.388779815983554
bao_29-01-01_29-01-01_09-08-01_09-08-01_08-08-01 1.1.1 0.084181141814 -7.616441296452793
bao_29-02-06_28-02-06_04-02-06_03-02-06_03-02-06 1.1.1 0.1242644394979999 -4.991505360545946
bao_29-02-06_28-02-06_04-02-06_04-02-06_03-02-06 1.1.1 0.14934044128 -5.670231658498692
bao_29-02-06_29-02-06_04-02-06_03-02-06_03-02-06 1.1.1 0.180835083936 -4.490413854623885
bao_29-02-08_29-02-08_06-10-08_06-10-08_06-10-08 1.1.1 0.08941004326 -7.439685226709843
bao_29-02-08_29-02-08_06-10-08_06-10-08_07-10-08 1.1.1 0.0841436421279999 -6.881663477429086
bao_29-02-08_29-02-08_06-10-08_07-10-08_07-10-08 1.1.1 0.09010395576 -8.208444885085585
bao_29-02-08_29-02-08_07-10-08_06-10-08_06-10-08 1.1.1 0.0962850283289999 -7.344110819867325
bao_29-02-08_29-02-08_07-10-08_07-10-08_06-10-08 1.1.1 0.077038117087 -7.034832142148674
bao_29-02-08_29-02-08_08-10-08_08-10-08_09-10-08 1.1.1 0.1026649536659999 -6.900903323689644
bao_29-02-08_29-02-08_08-10-08_09-10-08_09-10-08 1.1.1 0.0809858823259999 -7.422969182246325
bao_29-02-08_29-02-08_09-10-08_08-10-08_08-10-08 1.1.1 0.0946252068719999 -7.197623714895555
bao_29-02-08_29-02-08_09-10-08_09-10-08_08-10-08 1.1.1 0.0996136965599999 -8.207355508512425
bao_29-02-08_29-02-08_09-10-08_09-10-08_09-10-08 1.1.1 0.0882825433379999 -7.966239286344056
bao_29-03-12_29-03-12_06-12-12_06-12-12_07-12-12 1.1.1 0.113173236616 -9.46228050207866
bao_29-03-12_29-03-12_06-12-12_07-12-12_07-12-12 1.1.1 0.103546110612 -11.117128977912357
bao_29-03-12_29-03-12_07-12-12_06-12-12_06-12-12 1.1.1 0.108305925029 -10.103993913288104
bao_29-03-12_29-03-12_07-12-12_07-12-12_06-12-12 1.1.1 0.102498523508 -10.508033587162316
bao_29-03-12_29-03-12_08-12-12_08-12-12_09-12-12 1.1.1 0.1124177790339999 -9.617662135128455
bao_29-03-12_29-03-12_08-12-12_09-12-12_09-12-12 1.1.1 0.1123041248639999 -9.803677234397584
bao_29-03-12_29-03-12_09-12-12_08-12-12_08-12-12 1.1.1 0.11440126255 -11.435078956199591
bao_29-03-12_29-03-12_09-12-12_09-12-12_08-12-12 1.1.1 0.108908891783 -9.388454427523198
bao_30-01-01_30-01-01_09-08-01_08-08-01_08-08-01 1.1.1 0.062299112355 -7.894029072584681
bao_30-02-06_30-02-06_02-02-06_01-02-06_01-02-06 1.1.1 0.10679833736 -7.72412672864323
bao_30-02-08_30-02-08_07-10-08_06-10-08_06-10-08 1.1.2 0.057263642904 -9.567930387453169
bao_30-02-08_30-02-08_09-10-08_08-10-08_08-10-08 1.1.1 0.0848223965509999 -10.381957533576358
bao_30-02-08_30-02-08_09-10-08_09-10-08_08-10-08 1.1.1 0.0878420865 -12.38591883047217
bao_30-03-12_30-03-12_06-12-12_06-12-12_06-12-12 1.1.2 0.10705300146 -12.674162325942374
bap_29-05-09_29-05-09_02-03-09_02-03-09_02-03-09_02-03-09_02-03-09 1.1.1 0.146435854344 -7.078434067118497
bap_30-03-12_30-03-12_08-12-12_08-12-12_08-12-12_08-12-12_08-12-12 1.1.1 0.116692778558 -12.92628218408112
baq_30-02-06_30-02-06_01-02-06_01-02-06_01-02-06_01-02-06 1.1.1 0.18311472344 -4.443771615539984
baq_30-02-06_30-02-06_01-02-06_01-02-06_02-02-06_02-02-06 1.1.1 0.168117885928 -4.626605249526338
baq_30-02-06_30-02-06_03-02-06_03-02-06_04-02-06_04-02-06 1.1.1 0.228707631266 -4.201946894161567
baq_30-02-06_30-02-06_04-02-06_03-02-06_04-02-06_04-02-06 1.1.1 0.2254761684629999 -3.842855361087121
baq_30-04-05_30-04-05_02-02-05_02-02-05_02-02-05_02-02-05 1.1.1 0.1861278871679999 -8.74785571364837
baq_30-04-05_30-04-05_03-02-05_03-02-05_03-02-05_03-02-05 1.1.1 0.2653626282999999 -7.222680516388293
baq_30-04-05_30-04-05_04-02-05_04-02-05_04-02-05_04-02-05 1.1.1 0.2488604078419999 -5.881144598893768
baq_31-02-04_29-02-04_04-03-04_04-03-04_04-03-04_04-03-04 1.1.1 0.2630834787359999 -3.991846143786844
baq_31-03-09_29-03-09_01-05-09_01-05-09_01-05-09_01-05-09 1.1.1 0.305550058002 -3.90499101691393
baq_31-03-12_29-03-12_06-12-12_06-12-12_06-12-12_06-12-12 1.1.1 0.189192977142 -7.389861154675991
baq_31-03-12_29-03-12_07-12-12_07-12-12_07-12-12_07-12-12 1.1.1 0.1902280775999999 -7.445270935465558
baq_31-04-05_28-04-05_01-02-05_01-02-05_01-02-05_01-02-05 1.1.1 0.29464514142 -4.183725903116137
baq_31-04-05_28-04-05_02-02-05_02-02-05_02-02-05_02-02-05 1.1.1 0.241896074527 -4.367171078774215
baq_31-04-05_29-04-05_02-02-05_02-02-05_02-02-05_02-02-05 1.1.1 0.270654304372 -4.37636555209718
bas_28-01-01_28-01-01_07-08-01_07-08-01_07-08-01_07-08-01 1.1.1 0.1035794823959999 -5.318579077683059
bas_28-02-05_28-02-05_01-04-05_01-04-05_01-04-05_01-04-05 1.1.1 0.175469028526 -6.070844827946752
bas_28-02-06_28-02-06_01-02-06_01-02-06_01-02-06_02-02-06 1.1.1 0.163819083912 -4.930724912610637
bas_28-02-06_28-02-06_03-02-06_04-02-06_04-02-06_03-02-06 1.1.1 0.193603834708 -4.0744549216850485
bas_28-02-06_28-02-06_04-02-06_04-02-06_03-02-06_03-02-06 1.1.1 0.2106032264489999 -3.8573431955025614
bas_29-02-06_29-02-06_02-02-06_01-02-06_02-02-06_02-02-06 1.1.1 0.17395686405 -4.8656225818814764
bas_29-02-06_29-02-06_03-02-06_03-02-06_03-02-06_03-02-06 1.1.1 0.2455225318 -4.379179421109791
bas_29-02-06_29-02-06_03-02-06_03-02-06_03-02-06_04-02-06 1.1.1 0.23492541135 -5.1260075764138255
bas_29-02-06_29-02-06_03-02-06_03-02-06_04-02-06_03-02-06 1.1.1 0.228164044931 -4.248535730177364
bas_29-02-06_29-02-06_03-02-06_03-02-06_04-02-06_04-02-06 1.1.1 0.226575253485 -4.205128078844379
bas_29-02-06_29-02-06_03-02-06_04-02-06_04-02-06_04-02-06 1.1.1 0.231598761174 -4.155397646898627
bas_29-02-06_29-02-06_04-02-06_04-02-06_03-02-06_04-02-06 1.1.1 0.2141381664659999 -4.207109974697643
bas_29-05-09_29-05-09_04-03-09_04-03-09_04-03-09_04-03-09 1.1.1 0.2171715422669999 -4.724848601597516
bas_30-02-06_30-02-06_03-02-06_03-02-06_03-02-06_04-02-06 1.1.1 0.164472920172 -4.470335976597439
bas_30-03-09_30-03-09_05-05-09_05-05-09_05-05-09_05-05-09 1.1.1 0.236369958081 -5.379049349978234
bat_28-01-01_28-01-01_07-08-01_07-08-01_07-08-01_07-08-01_07-08-01 1.1.1 0.1129136801249999 -6.594539564569371
bat_28-01-01_28-01-01_09-08-01_09-08-01_09-08-01_09-08-01_09-08-01 1.1.1 0.1214106754119999 -5.998775525110874
bat_28-01-01_28-01-01_10-08-01_10-08-01_10-08-01_10-08-01_10-08-01 1.1.1 0.171196292427 -4.19916951110247
bat_28-02-05_28-02-05_03-04-05_03-04-05_03-04-05_03-04-05_03-04-05 1.1.1 0.268689297184 -4.648662821536138
bat_28-02-05_28-02-05_05-04-05_05-04-05_05-04-05_05-04-05_05-04-05 1.1.1 0.308915624313 -4.438637837040315
bat_28-02-06_28-02-06_04-02-06_04-02-06_04-02-06_04-02-06_04-02-06 1.1.1 0.246498990384 -4.214457011163196
bat_28-02-08_28-02-08_07-10-08_07-10-08_07-10-08_07-10-08_07-10-08 1.1.1 0.113433714 -5.794862094504982
bat_28-03-09_28-03-09_01-05-09_01-05-09_01-05-09_01-05-09_01-05-09 1.1.1 0.2103375426079999 -4.767245727256532
bat_28-03-09_28-03-09_02-05-09_02-05-09_02-05-09_02-05-09_02-05-09 1.1.1 0.1835426009159999 -5.13986610580834
bat_28-03-12_28-03-12_09-12-12_09-12-12_09-12-12_09-12-12_09-12-12 1.1.1 0.150085075772 -10.233768673471898
bat_28-05-09_28-05-09_04-03-09_04-03-09_04-03-09_04-03-09_04-03-09 1.1.1 0.246489470775 -4.833809814062223
bat_28-05-09_28-05-09_05-03-09_05-03-09_05-03-09_05-03-09_05-03-09 1.1.1 0.3720871878660001 -3.386030869846401
bat_29-01-01_29-01-01_06-08-01_06-08-01_06-08-01_06-08-01_06-08-01 1.1.1 0.131992326956 -4.354997860212176
bat_29-02-06_29-02-06_04-02-06_04-02-06_04-02-06_04-02-06_04-02-06 1.1.1 0.2605424653869999 -3.8528414050037822
bat_29-02-08_29-02-08_06-10-08_06-10-08_06-10-08_06-10-08_06-10-08 1.1.1 0.14259360366 -5.642787587650046
bat_29-03-09_29-03-09_02-05-09_02-05-09_02-05-09_02-05-09_02-05-09 1.1.1 0.195478050846 -5.614071617368039
bat_29-03-12_29-03-12_06-12-12_06-12-12_06-12-12_06-12-12_06-12-12 1.1.1 0.153907747524 -7.988034890341248
bat_29-03-12_29-03-12_09-12-12_09-12-12_09-12-12_09-12-12_09-12-12 1.1.1 0.142724154625 -7.702334860753216
bat_29-05-09_29-05-09_03-03-09_03-03-09_03-03-09_03-03-09_03-03-09 1.1.1 0.277442759424 -4.055886648272858
bat_29-05-09_29-05-09_05-03-09_05-03-09_05-03-09_05-03-09_05-03-09 1.1.1 0.368715338666 -4.268160418267068
bat_30-02-06_30-02-06_05-02-06_05-02-06_05-02-06_05-02-06_05-02-06 1.1.1 0.275193731316 -4.159613753570059
bat_30-02-08_30-02-08_07-10-08_07-10-08_07-10-08_07-10-08_07-10-08 1.1.1 0.0920813123089999 -8.680946444365004
bat_30-03-09_30-03-09_02-05-09_02-05-09_02-05-09_02-05-09_02-05-09 1.1.1 0.148732224924 -8.760121186483989
bat_30-03-09_30-03-09_03-05-09_03-05-09_03-05-09_03-05-09_03-05-09 1.1.1 0.213642480325 -5.386962548895737
bat_30-03-09_30-03-09_05-05-09_05-05-09_05-05-09_05-05-09_05-05-09 1.1.1 0.2831692619579999 -4.418173766593313
bat_30-04-05_30-04-05_01-02-05_01-02-05_01-02-05_01-02-05_01-02-05 1.1.1 0.172690305372 -7.880282183467154
bat_30-04-05_30-04-05_04-02-05_04-02-05_04-02-05_04-02-05_04-02-05 1.1.1 0.185299767423 -7.381638229974745
baw_31-01-01_29-01-01_06-08-01_06-08-01_06-08-01_06-08-01_06-08-01 1.1.1 0.10237630921 -5.421931196768808
baz-a_28-04-05_16-04-05_28-04-05_16-04-05_02-02-05_02-02-05_02-02-05_02-02-05_02-02-05_02-02-05_02-02-05_02-02-05 1.1.1 0.4115509858799999 -4.462663419058229
baz-a_28-04-05_16-04-05_28-04-05_16-04-05_03-02-05_03-02-05_03-02-05_03-02-05_03-02-05_03-02-05_03-02-05_03-02-05 1.1.1 0.598244408895 -3.404890498504997
baz-a_28-04-05_16-04-05_28-04-05_16-04-05_04-02-05_04-02-05_04-02-05_04-02-05_04-02-05_04-02-05_04-02-05_04-02-05 1.1.1 0.558853849028 -3.131198144113318
baz_31-04-05_29-04-05_04-02-05_04-02-05_04-02-05 1.1.1 0.220880007912 -5.251650749239763
baz_31-04-05_29-04-05_05-02-05_05-02-05_05-02-05 1.1.1 0.3554707327830001 -3.8443155247127594
bba_29-02-06_28-02-06_01-02-06_01-02-06_02-02-06 1.1.1 0.0880433668729999 -6.400408679724041
bba_29-02-06_28-02-06_04-02-06_03-02-06_03-02-06 1.1.1 0.142877981423 -5.57425435395618
bbf_31-01-01_29-01-01_07-08-01_06-08-01 1.1.1 0.067837521612 -5.887148469493331
bbf_31-02-04_29-02-04_01-03-04_01-03-04 1.1.1 0.0817258810699999 -8.072484633107111
bbf_31-03-12_29-03-12_08-12-12_09-12-12 1.1.1 0.103159290501 -11.631939111071718
bbf_31-03-12_29-03-12_09-12-12_09-12-12 1.1.1 0.0906322603679999 -10.50641495879496
bbg_28-02-06_29-02-06_02-02-06_01-02-06_01-02-06 1.1.1 0.088444716654 -4.9489744480536295
bbg_28-02-08_28-02-08_06-10-08_07-10-08_06-10-08 1.2.1 0.0713944927025 -7.55775612442286
bbg_28-03-12_28-03-12_07-12-12_07-12-12_06-12-12 1.2.1 0.117931844408 -12.150777778456506
bbg_28-03-12_29-03-12_07-12-12_07-12-12_07-12-12 1.1.1 0.112961606615 -10.058884905115663
bbg_28-04-05_29-04-05_04-02-05_04-02-05_04-02-05 1.1.1 0.1207273075819999 -8.399614338637038
bbg_29-02-06_28-02-06_01-02-06_01-02-06_01-02-06 1.1.1 0.149726458932 -7.230265754980757
bbg_29-02-08_29-02-08_09-10-08_08-10-08_08-10-08 1.1.1 0.070068754844 -7.95482257092171
bbg_30-03-12_30-03-12_06-12-12_07-12-12_07-12-12 2.2.1 0.0971213832224999 -13.38476287440552
bbh_29-02-06_28-02-06_04-02-06_04-02-06_03-02-06 1.1.1 0.1156390170879999 -5.588159443377107
bbh_29-03-12_29-03-12_09-12-12_08-12-12_09-12-12 1.1.1 0.110782647549 -11.65028009569386
bbh_31-02-06_29-02-06_04-02-06_03-02-06_04-02-06 1.1.1 0.14309644096 -5.149058893605342
bbk_31-05-09_29-05-09_03-03-09_03-03-09_03-03-09_03-03-09_03-03-09 1.1.1 0.11881956905 -6.15172867442502
bbm_28-01-01_29-01-01_10-08-01_10-08-01_10-08-01_10-08-01 1.1.1 0.0954635913919999 -6.341549082567976
bbn_31-01-01_29-01-01_09-08-01_09-08-01_09-08-01 1.1.1 0.097191091368 -7.280144880367743
bbn_31-02-06_29-02-06_03-02-06_04-02-06_03-02-06 1.1.1 0.194956380374 -5.187815969234735
bbn_31-02-06_29-02-06_04-02-06_03-02-06_03-02-06 1.1.1 0.1983784077279999 -4.264184953483388
bbn_31-03-12_29-03-12_08-12-12_08-12-12_08-12-12 1.1.1 0.14224375748 -10.017739030058095
bbo_31-01-01_29-01-01_06-08-01_06-08-01_06-08-01_06-08-01 1.1.1 0.104445719824 -6.099713804235954
bbo_31-01-01_29-01-01_07-08-01_07-08-01_07-08-01_07-08-01 1.1.1 0.1014618710209999 -5.795231517079433
bbo_31-01-01_29-01-01_08-08-01_08-08-01_08-08-01_08-08-01 1.1.1 0.1253706356209999 -5.729959792988976
bbo_31-01-01_29-01-01_09-08-01_09-08-01_09-08-01_09-08-01 1.1.1 0.1127911198439999 -5.9969634083816175
bbo_31-01-01_29-01-01_10-08-01_10-08-01_10-08-01_10-08-01 1.1.1 0.146835875 -5.2948397681228245
bbo_31-02-04_29-02-04_04-03-04_04-03-04_04-03-04_04-03-04 1.1.1 0.1606708051199999 -5.026054130353878
bbo_31-02-04_29-02-04_05-03-04_05-03-04_05-03-04_05-03-04 1.1.1 0.232000853952 -4.434300805377748
bbo_31-02-06_29-02-06_01-02-06_01-02-06_01-02-06_01-02-06 1.1.1 0.145346520099 -6.146866268817118
bbo_31-02-06_29-02-06_02-02-06_02-02-06_02-02-06_02-02-06 1.1.1 0.130039417528 -5.890555102242091
bbo_31-02-06_29-02-06_03-02-06_03-02-06_03-02-06_03-02-06 1.1.1 0.2085672555179999 -4.292300214263526
bbo_31-02-06_29-02-06_04-02-06_04-02-06_04-02-06_04-02-06 1.1.1 0.20087972016 -4.939718882534573
bbo_31-02-06_29-02-06_05-02-06_05-02-06_05-02-06_05-02-06 1.1.1 0.284652022014 -3.674820940946567
bbo_31-02-08_28-02-08_06-10-08_06-10-08_06-10-08_06-10-08 1.1.1 0.116924707251 -6.159410699854006
bbo_31-02-08_29-02-08_07-10-08_07-10-08_07-10-08_07-10-08 1.1.1 0.1093765226399999 -6.542230481574963
bbo_31-02-08_29-02-08_08-10-08_08-10-08_08-10-08_08-10-08 1.1.1 0.120235038186 -5.728165854678052
bbo_31-02-08_29-02-08_09-10-08_09-10-08_09-10-08_09-10-08 1.1.1 0.124265264611 -7.896000571499395
bbo_31-03-09_29-03-09_01-05-09_01-05-09_01-05-09_01-05-09 1.1.1 0.181884795141 -5.774036437446375
bbo_31-03-09_29-03-09_02-05-09_02-05-09_02-05-09_02-05-09 1.1.1 0.1606711837849999 -5.535336826829451
bbo_31-03-09_29-03-09_03-05-09_03-05-09_03-05-09_03-05-09 1.1.1 0.231286499628 -4.3933158239309495
bbo_31-03-09_29-03-09_04-05-09_04-05-09_04-05-09_04-05-09 1.1.1 0.224123183904 -5.299996121078797
bbo_31-03-12_28-03-12_06-12-12_06-12-12_06-12-12_06-12-12 1.1.1 0.1345265475059999 -10.773494384703696
bbo_31-03-12_29-03-12_06-12-12_06-12-12_06-12-12_06-12-12 1.1.1 0.12567041539 -9.389310374448428
bbo_31-03-12_29-03-12_08-12-12_08-12-12_08-12-12_08-12-12 1.1.1 0.134893629664 -9.447126775332002
bbo_31-03-12_29-03-12_09-12-12_09-12-12_09-12-12_09-12-12 1.1.1 0.125139226748 -8.622125612737355
bbo_31-03-12_29-03-12_10-12-12_10-12-12_10-12-12_10-12-12 1.1.1 0.156484498742 -5.982309289234023
bbp_31-02-06_29-02-06_01-02-06_01-02-06_01-02-06 1.1.1 0.1651951716479999 -5.007349175678947
bbp_31-02-06_29-02-06_01-02-06_01-02-06_02-02-06 1.1.1 0.172004195552 -5.511289095120914
bbp_31-02-06_29-02-06_02-02-06_01-02-06_02-02-06 1.1.1 0.1457624883299999 -4.959874652688822
bbp_31-02-06_29-02-06_03-02-06_03-02-06_03-02-06 1.1.1 0.2178646168479999 -3.7937353469806103
bbp_31-02-06_29-02-06_03-02-06_03-02-06_04-02-06 1.1.1 0.209362024353 -4.593567572450115
bbp_31-02-06_29-02-06_03-02-06_04-02-06_04-02-06 1.1.1 0.211225966224 -3.896353223458037
bbp_31-02-06_29-02-06_04-02-06_04-02-06_03-02-06 1.1.1 0.212259720876 -4.564386391735229
bbp_31-02-06_29-02-06_04-02-06_04-02-06_04-02-06 1.1.1 0.2180518514519999 -4.503271699578508
bbp_31-02-08_29-02-08_09-10-08_09-10-08_09-10-08 1.1.1 0.118050833628 -7.765937926465149
bbp_31-02-08_29-02-08_10-10-08_10-10-08_10-10-08 1.1.1 0.1494456652319999 -4.912278726251132
bbp_31-03-09_29-03-09_03-05-09_03-05-09_03-05-09 1.1.1 0.248607098184 -5.095907984386907
bbp_31-03-09_29-03-09_05-05-09_05-05-09_05-05-09 1.1.1 0.3014063978359999 -4.527386307545455
bbp_31-03-12_29-03-12_07-12-12_07-12-12_07-12-12 1.1.1 0.1260321268999999 -10.475808299467342
bbp_31-03-12_29-03-12_08-12-12_08-12-12_08-12-12 1.1.1 0.1510650759559999 -10.5660862937893
bbp_31-03-12_29-03-12_09-12-12_09-12-12_09-12-12 1.1.1 0.1384283777759999 -10.303341592835231
bbq_31-01-01_28-01-01_07-08-01_07-08-01_07-08-01_07-08-01 1.1.1 0.1089822979829999 -5.970972511912932
bbq_31-01-01_29-01-01_07-08-01_07-08-01_07-08-01_07-08-01 1.1.1 0.12019873239 -6.017850933716558
bbq_31-01-01_29-01-01_08-08-01_08-08-01_08-08-01_08-08-01 1.1.1 0.13194958262 -5.329276221464973
bbq_31-01-01_29-01-01_09-08-01_09-08-01_09-08-01_09-08-01 1.1.1 0.117166317655 -6.017331883083001
bbq_31-01-01_29-01-01_10-08-01_10-08-01_10-08-01_10-08-01 1.1.1 0.169546490189 -5.01497281548493
bbq_31-02-05_28-02-05_04-04-05_04-04-05_04-04-05_04-04-05 1.1.1 0.157083813822 -6.199962097558436
bbq_31-02-06_29-02-06_01-02-06_01-02-06_01-02-06_01-02-06 1.1.1 0.1866530249919999 -4.314039017581117
bbq_31-02-06_29-02-06_02-02-06_02-02-06_02-02-06_02-02-06 1.1.1 0.15561284918 -5.463246348573216
bbq_31-02-06_29-02-06_03-02-06_03-02-06_03-02-06_03-02-06 1.1.1 0.2033848528399999 -4.757085017432511
bbq_31-02-06_29-02-06_05-02-06_05-02-06_05-02-06_05-02-06 1.1.1 0.332419416229 -3.519581012852494
bbq_31-02-08_28-02-08_08-10-08_08-10-08_08-10-08_08-10-08 1.1.1 0.116607968085 -5.670940928785882
bbq_31-02-08_29-02-08_06-10-08_06-10-08_06-10-08_06-10-08 1.1.1 0.127594881272 -6.041691899247387
bbq_31-02-08_29-02-08_07-10-08_07-10-08_07-10-08_07-10-08 1.1.1 0.1207403172 -5.476126846601839
bbq_31-02-08_29-02-08_08-10-08_08-10-08_08-10-08_08-10-08 1.1.1 0.123861616731 -6.185984405905789
bbq_31-02-08_29-02-08_09-10-08_09-10-08_09-10-08_09-10-08 1.1.1 0.12939650505 -7.779687567474785
bbq_31-02-08_29-02-08_10-10-08_10-10-08_10-10-08_10-10-08 1.1.1 0.1658573066459999 -4.913386826823544
bbq_31-03-09_29-03-09_01-05-09_01-05-09_01-05-09_01-05-09 1.1.1 0.202605848214 -5.249916839409233
bbq_31-03-09_29-03-09_02-05-09_02-05-09_02-05-09_02-05-09 1.1.1 0.162606981474 -6.756401148469924
bbq_31-03-12_29-03-12_06-12-12_06-12-12_06-12-12_06-12-12 1.1.1 0.146505824796 -7.711868356478599
bbq_31-03-12_29-03-12_08-12-12_08-12-12_08-12-12_08-12-12 1.1.1 0.1653108205 -9.255986136525916
bbq_31-03-12_29-03-12_09-12-12_09-12-12_09-12-12_09-12-12 1.1.1 0.139539365016 -8.8790959045891
bbq_31-03-12_29-03-12_10-12-12_10-12-12_10-12-12_10-12-12 1.1.1 0.168027725932 -5.37471705432115
bbq_31-05-09_29-05-09_03-03-09_03-03-09_03-03-09_03-03-09 1.1.1 0.2506517199759999 -4.558915529907479
bbq_31-05-09_29-05-09_04-03-09_04-03-09_04-03-09_04-03-09 1.1.1 0.2304039213989999 -5.313054380395594
bbr_31-02-06_28-02-06_01-02-06_01-02-06_02-02-06 1.1.1 0.11007526368 -5.586847064749479
bbr_31-03-12_29-03-12_08-12-12_08-12-12_08-12-12 1.1.1 0.10303058173 -10.437999083850448
bbs_29-02-04_31-02-04_02-03-04_02-03-04_02-03-04 1.1.1 0.0805367485419999 -7.143371556784231
bbs_29-02-06_31-02-06_02-02-06_02-02-06_01-02-06 1.1.1 0.1198186625799999 -5.986809927157796
bbs_29-02-06_31-02-06_03-02-06_04-02-06_04-02-06 1.1.1 0.1688174095519999 -5.940795557931745
bbs_29-02-06_31-02-06_04-02-06_03-02-06_04-02-06 1.1.1 0.1408868481679999 -5.765245145014847
bbs_29-03-09_31-03-09_04-05-09_04-05-09_04-05-09 1.1.1 0.1737568030799999 -7.362333676185913
bbs_29-03-12_31-03-12_10-12-12_10-12-12_10-12-12 1.1.1 0.139911463461 -9.024355872133262
bbv_31-01-01_29-01-01_07-08-01_07-08-01_07-08-01 1.1.1 0.0832220200659999 -7.085734541906468
bbv_31-02-04_29-02-04_05-03-04_05-03-04_05-03-04 1.1.1 0.188910384162 -4.765019549766691
bbv_31-02-06_29-02-06_03-02-06_03-02-06_03-02-06 1.1.1 0.188008832 -4.808957835246354
bbv_31-02-06_29-02-06_04-02-06_03-02-06_03-02-06 1.1.1 0.187847428351 -4.528360388126342
bbv_31-03-12_29-03-12_06-12-12_06-12-12_06-12-12 1.1.1 0.108737908092 -9.982748477281907
bbv_31-03-12_29-03-12_10-12-12_10-12-12_10-12-12 1.1.1 0.1225311574879999 -7.883908899595787
bbv_31-05-09_29-05-09_02-03-09_02-03-09_02-03-09 1.1.1 0.152996065248 -5.841284590014959
bbw_29-01-01_31-01-01_07-08-01_07-08-01_07-08-01 1.1.1 0.1062408766499999 -6.067260353147809
bbw_29-02-04_31-02-04_04-03-04_04-03-04_04-03-04 1.1.1 0.1529583978999999 -7.303573145095169
bbw_29-02-04_31-02-04_05-03-04_05-03-04_05-03-04 1.1.1 0.23907302832 -4.213553720502025
bbw_29-02-06_31-02-06_02-02-06_01-02-06_01-02-06 1.1.1 0.173513567259 -5.9417921770302815
bbw_29-02-06_31-02-06_04-02-06_03-02-06_03-02-06 1.1.1 0.188561677194 -5.50932698657683
bbw_29-02-08_31-02-08_06-10-08_06-10-08_06-10-08 1.1.1 0.1288663812999999 -8.037723266025614
bbw_29-02-08_31-02-08_10-10-08_10-10-08_10-10-08 1.1.1 0.1515331548499999 -6.953324570704743
bbw_29-05-09_31-05-09_03-03-09_03-03-09_03-03-09 1.1.1 0.2122048809519999 -4.861131664491562
bbx_29-01-01_31-01-01_07-08-01_07-08-01_07-08-01 1.1.1 0.091288457012 -7.232023498073062
bbx_29-01-01_31-01-01_09-08-01_09-08-01_09-08-01 1.1.1 0.088588819295 -8.510021845170387
bbx_29-02-04_31-02-04_03-03-04_03-03-04_03-03-04 1.1.1 0.16077645519 -5.433592143818152
bbx_29-02-04_31-02-04_05-03-04_05-03-04_05-03-04 1.1.1 0.197330118752 -5.758722395127474
bbx_29-02-06_31-02-06_01-02-06_01-02-06_01-02-06 1.1.1 0.15502058325 -5.281949051585357
bbx_29-02-06_31-02-06_01-02-06_01-02-06_02-02-06 1.1.1 0.136845122762 -5.952572582469455
bbx_29-02-06_31-02-06_02-02-06_02-02-06_02-02-06 1.1.1 0.1318426202 -6.139812507622168
bbx_29-02-06_31-02-06_03-02-06_03-02-06_04-02-06 1.1.1 0.1879267893919999 -4.113337738338439
bbx_29-02-06_31-02-06_03-02-06_04-02-06_04-02-06 1.1.1 0.15647959522 -5.695095252091497
bbx_29-02-06_31-02-06_04-02-06_03-02-06_04-02-06 1.1.1 0.182287808035 -4.953747786417075
bbx_29-02-06_31-02-06_04-02-06_04-02-06_04-02-06 1.1.1 0.1677619086 -5.918074521233228
bbx_29-03-09_31-03-09_05-05-09_05-05-09_05-05-09 1.1.1 0.26215293008 -3.992968902985176
bbx_29-03-12_31-03-12_09-12-12_09-12-12_09-12-12 1.1.1 0.10557022203 -12.62502738682249
bby_28-02-04_28-02-04_01-03-04_01-03-04_01-03-04_01-03-04_01-03-04_01-03-04 1.1.1 0.136796523316 -5.997273042585552
bby_28-02-04_28-02-04_02-03-04_02-03-04_02-03-04_02-03-04_02-03-04_02-03-04 1.1.1 0.098681617664 -5.331551549041326
bby_28-03-09_28-03-09_01-05-09_01-05-09_01-05-09_01-05-09_01-05-09_01-05-09 1.1.1 0.177891857685 -5.338868976439543
bby_29-01-01_29-01-01_06-08-01_06-08-01_06-08-01_06-08-01_06-08-01_06-08-01 1.1.1 0.0984349558499999 -6.2466340173776205
bby_29-01-01_29-01-01_07-08-01_07-08-01_07-08-01_07-08-01_07-08-01_07-08-01 1.1.1 0.107113007001 -7.078082551784296
bby_29-01-01_29-01-01_08-08-01_08-08-01_08-08-01_08-08-01_08-08-01_08-08-01 1.1.1 0.114487572269 -4.888484069622811
bby_29-02-04_29-02-04_02-03-04_02-03-04_02-03-04_02-03-04_02-03-04_02-03-04 1.1.1 0.11500447242 -5.575348899606725
bby_29-02-04_29-02-04_04-03-04_04-03-04_04-03-04_04-03-04_04-03-04_04-03-04 1.1.1 0.163157756346 -5.543571121208323
bby_29-02-08_29-02-08_07-10-08_07-10-08_07-10-08_07-10-08_07-10-08_07-10-08 1.1.1 0.1095656799779999 -5.697255153336728
bby_29-02-08_29-02-08_09-10-08_09-10-08_09-10-08_09-10-08_09-10-08_09-10-08 1.1.1 0.107256849983 -6.920651970306396
bby_29-03-09_29-03-09_01-05-09_01-05-09_01-05-09_01-05-09_01-05-09_01-05-09 1.1.1 0.1949421900539999 -6.258947635978659
bby_29-03-09_29-03-09_05-05-09_05-05-09_05-05-09_05-05-09_05-05-09_05-05-09 1.1.1 0.296339034249 -4.6044308168256975
bby_29-03-12_29-03-12_06-12-12_06-12-12_06-12-12_06-12-12_06-12-12_06-12-12 1.1.1 0.136928600625 -8.201498469805777
bby_29-03-12_29-03-12_07-12-12_07-12-12_07-12-12_07-12-12_07-12-12_07-12-12 1.1.1 0.131944232152 -9.84867965062777
bby_29-03-12_29-03-12_08-12-12_08-12-12_08-12-12_08-12-12_08-12-12_08-12-12 1.1.1 0.135996267472 -8.154440357862834
bby_29-03-12_29-03-12_09-12-12_09-12-12_09-12-12_09-12-12_09-12-12_09-12-12 1.1.1 0.12836728662 -8.583963698322126
bby_29-04-05_29-04-05_04-02-05_04-02-05_04-02-05_04-02-05_04-02-05_04-02-05 1.1.1 0.22125951552 -5.380126065225349
bby_29-05-09_29-05-09_02-03-09_02-03-09_02-03-09_02-03-09_02-03-09_02-03-09 1.1.1 0.1568736299549999 -6.414886567320884
bby_30-03-12_30-03-12_06-12-12_06-12-12_06-12-12_06-12-12_06-12-12_06-12-12 1.1.1 0.11399162181 -13.591324803053553
bby_30-05-09_30-05-09_04-03-09_04-03-09_04-03-09_04-03-09_04-03-09_04-03-09 1.1.1 0.158647783602 -6.191065867011882
bbz_28-02-05_28-02-05_03-04-05_03-04-05_03-04-05_03-04-05_03-04-05 1.1.1 0.195158146586 -5.175375972064709
bbz_28-02-08_28-02-08_10-10-08_10-10-08_10-10-08_10-10-08_10-10-08 1.1.1 0.128073265152 -4.695509785287411
bbz_29-01-01_29-01-01_08-08-01_08-08-01_08-08-01_08-08-01_08-08-01 1.1.1 0.105538409052 -5.661990145253832
bbz_29-01-01_29-01-01_10-08-01_10-08-01_10-08-01_10-08-01_10-08-01 1.1.1 0.140338990036 -5.462847836144565
bbz_29-02-04_29-02-04_02-03-04_02-03-04_02-03-04_02-03-04_02-03-04 1.1.1 0.088798535262 -5.087647219964585
bbz_29-02-05_29-02-05_02-04-05_02-04-05_02-04-05_02-04-05_02-04-05 1.1.1 0.14167262823 -7.071535748159418
bbz_29-02-06_29-02-06_05-02-06_05-02-06_05-02-06_05-02-06_05-02-06 1.1.1 0.281609826362 -4.406232250191368
bbz_29-02-06_29-02-06_None_None_None_None_None 1.1.2 0.1073418333375 -8.642198855582878
bbz_29-02-08_29-02-08_08-10-08_08-10-08_08-10-08_08-10-08_08-10-08 1.1.1 0.112879498455 -7.147661753576267
bbz_29-02-08_29-02-08_09-10-08_09-10-08_09-10-08_09-10-08_09-10-08 1.1.1 0.0966054767599999 -6.430611319627825
bbz_29-03-04_29-03-04_03-02-04_03-02-04_03-02-04_03-02-04_03-02-04 1.1.1 0.151575244666 -4.862041429628631
bbz_29-03-12_29-03-12_08-12-12_08-12-12_08-12-12_08-12-12_08-12-12 1.1.1 0.1313162339759999 -9.00753343936877
bbz_29-03-12_29-03-12_09-12-12_09-12-12_09-12-12_09-12-12_09-12-12 1.1.1 0.1219489222889999 -11.852857333532349
bbz_29-03-12_29-03-12_10-12-12_10-12-12_10-12-12_10-12-12_10-12-12 1.1.1 0.1582599302499999 -6.335367602742678
bbz_29-05-09_29-05-09_03-03-09_03-03-09_03-03-09_03-03-09_03-03-09 1.1.1 0.2140142338319999 -4.3628868396885006
bbz_30-02-05_30-02-05_01-04-05_01-04-05_01-04-05_01-04-05_01-04-05 1.1.1 0.145384573129 -9.449457119844784
bbz_30-02-06_30-02-06_03-02-06_03-02-06_03-02-06_03-02-06_03-02-06 1.1.1 0.159571764 -4.937513183361991
bbz_30-03-12_30-03-12_10-12-12_10-12-12_10-12-12_10-12-12_10-12-12 1.1.1 0.1232409797999999 -9.444169148095003
bca_28-02-06_28-02-06_03-02-06_03-02-06_03-02-06_03-02-06_03-02-06_03-02-06 1.1.1 0.200123993358 -5.091845738873596
bca_30-01-01_30-01-01_09-08-01_09-08-01_09-08-01_09-08-01_09-08-01_09-08-01 1.1.1 0.06611578226 -10.550979344943768
bcb_28-01-01_28-01-01_08-08-01_08-08-01_08-08-01_08-08-01_08-08-01 1.1.1 0.101801729952 -6.423298283188778
bcb_30-04-05_30-04-05_02-02-05_02-02-05_02-02-05_02-02-05_02-02-05 1.1.1 0.131436280214 -11.33987491126983
bcd_29-02-04_29-02-04_01-03-04_01-03-04_01-03-04_01-03-04_01-03-04_01-03-04 1.1.1 0.1033297274519999 -7.404244493680869
bcf_28-02-04_28-02-04_02-03-04_02-03-04_02-03-04_02-03-04_02-03-04_02-03-04_02-03-04 1.1.1 0.098874355284 -6.139566998346795
bcf_28-03-09_28-03-09_02-05-09_02-05-09_02-05-09_02-05-09_02-05-09_02-05-09_02-05-09 1.1.1 0.125526261546 -6.42871372108966
bcf_29-01-01_29-01-01_06-08-01_06-08-01_06-08-01_06-08-01_06-08-01_06-08-01_06-08-01 1.1.1 0.108342370068 -6.333717365390162
bcf_29-01-01_29-01-01_08-08-01_08-08-01_08-08-01_08-08-01_08-08-01_08-08-01_08-08-01 1.1.1 0.109357232985 -5.8749747290152925
bcf_29-01-01_29-01-01_09-08-01_09-08-01_09-08-01_09-08-01_09-08-01_09-08-01_09-08-01 1.1.1 0.0969813837289999 -6.698385532082205
bcf_29-01-01_29-01-01_10-08-01_10-08-01_10-08-01_10-08-01_10-08-01_10-08-01_10-08-01 1.1.1 0.123591218577 -5.177520148569827
bcf_29-02-04_29-02-04_03-03-04_03-03-04_03-03-04_03-03-04_03-03-04_03-03-04_03-03-04 1.1.1 0.147240528435 -5.115661116390098
bcf_29-02-04_29-02-04_05-03-04_05-03-04_05-03-04_05-03-04_05-03-04_05-03-04_05-03-04 1.1.1 0.1997703247499999 -5.288035715416111
bcf_29-02-06_29-02-06_03-02-06_03-02-06_03-02-06_03-02-06_03-02-06_03-02-06_03-02-06 1.1.1 0.18499666919 -4.08737978240499
bcf_29-02-08_29-02-08_06-10-08_06-10-08_06-10-08_06-10-08_06-10-08_06-10-08_06-10-08 1.1.1 0.092011413077 -6.685803419557459
bcf_29-02-08_29-02-08_08-10-08_08-10-08_08-10-08_08-10-08_08-10-08_08-10-08_08-10-08 1.1.1 0.1212409425239999 -6.663141319679827
bcf_29-02-08_29-02-08_10-10-08_10-10-08_10-10-08_10-10-08_10-10-08_10-10-08_10-10-08 1.1.1 0.133623867927 -4.820998608026515
bcf_29-03-12_29-03-12_07-12-12_07-12-12_07-12-12_07-12-12_07-12-12_07-12-12_07-12-12 1.1.1 0.111327945951 -8.643325526781666
bcf_29-03-12_29-03-12_08-12-12_08-12-12_08-12-12_08-12-12_08-12-12_08-12-12_08-12-12 1.1.1 0.126051196293 -8.90237948825853
bcf_29-03-12_29-03-12_09-12-12_09-12-12_09-12-12_09-12-12_09-12-12_09-12-12_09-12-12 1.1.1 0.1198376183509999 -9.17334093175696
bcf_29-03-12_29-03-12_10-12-12_10-12-12_10-12-12_10-12-12_10-12-12_10-12-12_10-12-12 1.1.1 0.159994285896 -6.376227933653575
bcf_29-04-05_29-04-05_05-02-05_05-02-05_05-02-05_05-02-05_05-02-05_05-02-05_05-02-05 1.1.1 0.2655034980749999 -4.886585037672009
bcf_29-05-09_29-05-09_01-03-09_01-03-09_01-03-09_01-03-09_01-03-09_01-03-09_01-03-09 1.1.1 0.157706041728 -5.007998861929836
bcf_30-03-12_30-03-12_06-12-12_06-12-12_06-12-12_06-12-12_06-12-12_06-12-12_06-12-12 1.1.1 0.1221073298039999 -13.297771744966113
bcf_30-04-05_30-04-05_04-02-05_04-02-05_04-02-05_04-02-05_04-02-05_04-02-05_04-02-05 1.1.1 0.155313498208 -7.958003946413391
bcf_30-04-05_30-04-05_05-02-05_05-02-05_05-02-05_05-02-05_05-02-05_05-02-05_05-02-05 1.1.1 0.2055033730379999 -6.600815585090073
bcf_30-05-09_30-05-09_01-03-09_01-03-09_01-03-09_01-03-09_01-03-09_01-03-09_01-03-09 1.1.1 0.1198402303 -9.0256419041484
bcj_28-04-05_28-04-05_02-02-05_02-02-05_02-02-05_02-02-05 1.1.1 0.2144102187499999 -4.70112407100068
bcm_28-01-01_28-01-01_06-08-01_07-08-01_06-08-01 1.1.1 0.064584968775 -8.047145882264632
bcm_28-02-06_29-02-06_03-02-06_04-02-06_03-02-06 1.1.1 0.146653839888 -4.570136342771131
bcm_28-02-06_29-02-06_04-02-06_03-02-06_03-02-06 1.1.1 0.16268995745 -5.686399159507766
bcm_28-02-08_29-02-08_06-10-08_06-10-08_06-10-08 1.1.1 0.067356978988 -8.637154255522336
bcm_29-01-01_29-01-01_06-08-01_07-08-01_06-08-01 1.1.1 0.080659013984 -7.090045656305633
bcm_29-01-01_29-01-01_07-08-01_06-08-01_07-08-01 1.1.1 0.0715692595499999 -9.132429456579237
bcm_29-02-08_29-02-08_06-10-08_07-10-08_06-10-08 1.1.1 0.07091683914 -8.762672360365812
bcm_29-02-08_29-02-08_08-10-08_09-10-08_08-10-08 1.1.1 0.0927532823879999 -7.491018686397006
bcm_29-02-08_29-02-08_09-10-08_09-10-08_08-10-08 1.1.1 0.0845637133 -8.952212255003936
bcm_29-03-12_29-03-12_07-12-12_06-12-12_07-12-12 1.1.1 0.090816131956 -12.04969925418002
bcm_30-01-01_30-01-01_08-08-01_08-08-01_09-08-01 2.2.1 0.058774326 -8.841449464573769
bcn_28-01-01_29-01-01_07-08-01_07-08-01_07-08-01_07-08-01 1.1.1 0.087767145296 -9.740327277996691
bcn_28-02-04_29-02-04_01-03-04_01-03-04_01-03-04_01-03-04 1.1.1 0.11065631304 -7.268639171696492
bcn_29-02-06_29-02-06_04-02-06_04-02-06_04-02-06_03-02-06 1.1.1 0.082161000062 -5.436941109591079
bcn_30-02-06_30-02-06_02-02-06_01-02-06_02-02-06_01-02-06 1.1.1 0.05821818636 -8.82893191502985
bcp_29-01-01_31-01-01_06-08-01_06-08-01_06-08-01_06-08-01 1.1.1 0.06932042721 -7.112279493617282
bcp_29-02-04_31-02-04_02-03-04_02-03-04_02-03-04_02-03-04 1.1.1 0.0749342357939999 -8.382831262289733
bcp_29-02-04_31-02-04_03-03-04_03-03-04_03-03-04_03-03-04 1.1.1 0.13697181865 -6.939851008186
bcp_29-02-08_31-02-08_06-10-08_06-10-08_06-10-08_06-10-08 1.1.1 0.059340691886 -7.735159021996826
bcp_29-02-08_31-02-08_07-10-08_07-10-08_07-10-08_07-10-08 1.1.1 0.09851487709 -7.733250694244939
bcp_29-03-09_31-03-09_01-05-09_01-05-09_01-05-09_01-05-09 1.1.1 0.130792237527 -7.307105929122756
bcp_29-03-12_31-03-12_06-12-12_06-12-12_06-12-12_06-12-12 1.1.1 0.126424579665 -10.952251645844104
bcp_29-03-12_31-03-12_07-12-12_07-12-12_07-12-12_07-12-12 1.1.1 0.104405414694 -12.798643687569546
bcp_29-04-05_31-04-05_05-02-05_05-02-05_05-02-05_05-02-05 1.1.1 0.163239036724 -6.362265712264503
bcp_29-05-09_31-05-09_04-03-09_04-03-09_04-03-09_04-03-09 1.1.1 0.13495914097 -6.973171749746844
bcp_30-02-08_30-02-08_09-10-08_09-10-08_09-10-08_09-10-08 1.2.1 0.136607210765 -19.074314070670788
bcq_29-02-06_29-02-06_01-02-06_01-02-06_01-02-06_01-02-06 1.1.1 0.123656899392 -5.438267198527564
bcr_28-05-09_29-05-09_02-03-09_02-03-09_02-03-09_02-03-09 1.1.1 0.143911144035 -6.427900997340191
bcr_28-05-09_29-05-09_04-03-09_04-03-09_04-03-09_04-03-09 1.1.1 0.188537426602 -5.82703050738762
bcr_29-04-05_28-04-05_01-02-05_01-02-05_01-02-05_01-02-05 1.1.1 0.18662290656 -6.663944548925347
bcr_29-04-05_28-04-05_02-02-05_02-02-05_02-02-05_02-02-05 1.1.1 0.15094117794 -7.874508800946884
bcr_29-04-05_29-04-05_01-02-05_01-02-05_01-02-05_01-02-05 1.1.1 0.181344843554 -6.366493750515643
bcr_29-04-05_29-04-05_02-02-05_02-02-05_02-02-05_02-02-05 1.1.1 0.1624064505729999 -6.72157063213984
bcr_29-04-05_29-04-05_03-02-05_03-02-05_03-02-05_03-02-05 1.1.1 0.236465867435 -5.859397037223375
bcu-f_17-08-01_01-01-01_01-01-01_01-01-01 1.1.1 0.077470094637 -8.099841600748391
bcu-g_11-02-06_03-02-06_03-02-06_03-02-06 1.1.2 0.0926367599219999 -11.31862576115651
bcu-g_11-03-12_08-12-12_08-12-12_08-12-12 2.2.1 0.310087444504 -23.232225444049813
bcu-g_12-03-04_02-02-04_02-02-04_02-02-04 2.1.1 0.08211163744 -14.41063130475638
bcu-g_13-02-05_02-04-05_02-04-05_02-04-05 2.2.1 0.116824357925 -17.571852444080253
bcu-g_13-03-09_02-05-09_02-05-09_02-05-09 1.1.1 0.092131470252 -8.473210662796522
bcu-g_13-03-09_05-05-09_05-05-09_05-05-09 1.1.1 0.10023105871 -9.161689861697877
bcu-g_13-05-09_01-03-09_01-03-09_01-03-09 1.1.1 0.122057435404 -10.20327193193632
bcu-g_14-02-06_05-02-06_05-02-06_05-02-06 1.1.1 0.155332003211 -5.711845295855402
bcu-g_14-02-08_09-10-08_09-10-08_09-10-08 1.1.1 0.103002357204 -14.451289147783209
bcu-g_14-02-08_10-10-08_10-10-08_10-10-08 1.1.1 0.089197335513 -13.06202709520612
bcu-g_14-03-09_02-05-09_02-05-09_02-05-09 2.1.1 0.088361696176 -13.859995550042646
bcu-g_14-03-12_09-12-12_09-12-12_09-12-12 1.1.1 0.10182594288 -13.325573262987932
bcu-g_16-02-04_03-03-04_03-03-04_03-03-04 1.1.1 0.10762999597 -5.344172344931894
bcu-g_16-02-08_07-10-08_07-10-08_07-10-08 1.1.1 0.053926331625 -8.547824328103921
bcu-g_35-11-03_03-01-03_03-01-03_03-01-03 1.1.1 0.081344086812 -12.014076606034845
[...]
zeb_29-03-12_29-03-12_31-03-12_10-12-12_10-12-12_10-12-12_10-12-12_10-12-12_10-12-12_10-12-12_10-12-12_10-12-12 1.1.1 0.151101931296 -7.287760707579784
zhc_2_02-01-01_3_21-08-01_4_25-08-01 1.1.1 0.112436778548 -5.520218736146076
zhc_2_02-03-04_3_16-02-04_4_31-02-04 1.1.1 0.09848078039 -5.74358012232191
zhc_2_02-03-09_3_16-05-09_4_31-05-09 1.1.1 0.141865864256 -5.929586746179905
zhc_2_02-03-12_3_21-12-12_4_25-12-12 1.1.1 0.116273832665 -6.325632583902977
zhc_2_04-01-01_3_21-08-01_4_25-08-01 1.1.1 0.15040040708 -5.464275028995608
zhc_2_05-02-08_3_21-10-08_4_25-10-08 1.1.1 0.2243572940799999 -4.148813181477912
zhc_2_06-12-12_3_16-03-12_4_31-03-12 1.1.1 0.122323668572 -8.893581092436044
zhc_2_07-12-12_3_16-03-12_4_31-03-12 1.1.1 0.117963589074 -9.199942239911724
zhc_2_09-08-01_3_16-01-01_4_31-01-01 1.1.1 0.110235993721 -6.764611724621249
zhc_2_09-10-08_3_16-02-08_4_31-02-08 1.1.1 0.096188835262 -7.349512107282416
zjz-a_16-01-01_16-01-01_16-01-01_16-01-01_16-01-01_06-08-01_06-08-01_06-08-01_06-08-01_06-08-01_06-08-01_06-08-01_06-08-01 1.1.1 0.2749852084799999 -3.5002022122185728
zjz-a_16-03-12_16-03-12_16-03-12_16-03-12_16-03-12_06-12-12_06-12-12_06-12-12_06-12-12_06-12-12_06-12-12_06-12-12_06-12-12 1.1.1 0.26323787744 -4.375545075259066
zjz-a_16-03-12_16-03-12_16-03-12_16-03-12_16-03-12_07-12-12_07-12-12_07-12-12_07-12-12_07-12-12_07-12-12_07-12-12_07-12-12 1.1.1 0.264349247988 -3.892744593575427
zjz-a_19-10-08_19-10-08_19-10-08_19-10-08_19-10-08_02-02-08_02-02-08_02-02-08_02-02-08_02-02-08_02-02-08_02-02-08_02-02-08 1.1.1 0.233873413455 -4.152435359614155
zjz-a_23-12-12_23-12-12_23-12-12_23-12-12_23-12-12_02-03-12_02-03-12_02-03-12_02-03-12_02-03-12_02-03-12_02-03-12_02-03-12 1.1.1 0.221791150735 -5.613197015923179
zjz-a_35-11-03_35-11-03_35-11-03_35-11-03_35-11-03_04-01-03_04-01-03_04-01-03_04-01-03_04-01-03_04-01-03_04-01-03_04-01-03 1.1.1 0.20791905228 -7.940027314459998
zjz-a_36-11-11_36-11-11_36-11-11_36-11-11_36-11-11_04-07-11_04-07-11_04-07-11_04-07-11_04-07-11_04-07-11_04-07-11_04-07-11 1.1.1 0.16563930583 -6.199654129021569
zme_14-02-05_13-02-05_04-04-05_04-04-05_04-04-05 1.1.1 0.280039794056 -4.144771727241733
zme_16-02-06_16-02-06_04-02-06_03-02-06_03-02-06 1.1.1 0.22941879473 -3.8150960398727776
zme_16-02-06_16-02-06_04-02-06_04-02-06_03-02-06 1.1.1 0.2465881818999999 -4.366416135171194
zmj_21-08-01_21-08-01_25-08-01_25-08-01_02-01-01_02-01-01_02-01-01_02-01-01_02-01-01 1.1.1 0.1265296713589999 -5.653566355951028
zni_28-01-01_06-08-01_07-08-01_06-08-01 1.1.1 0.0649217766149999 -7.233051394361198
zni_28-01-01_07-08-01_07-08-01_07-08-01 1.1.1 0.0560051852799999 -8.811735428623397
zni_28-01-01_08-08-01_08-08-01_08-08-01 1.1.1 0.066100428823 -8.997529515050742
zni_28-01-01_09-08-01_09-08-01_08-08-01 1.1.1 0.06743809583 -8.506183232194662
zni_28-01-01_09-08-01_09-08-01_09-08-01 1.1.1 0.075834686846 -13.323537718127128
zni_28-02-08_06-10-08_07-10-08_06-10-08 1.1.1 0.068623063988 -7.877115735024403
zni_28-02-08_07-10-08_07-10-08_07-10-08 1.1.1 0.0603467358479999 -9.653392171045912
zni_28-02-08_08-10-08_09-10-08_08-10-08 1.1.1 0.0850448365649999 -11.54011296229092
zni_28-02-08_09-10-08_08-10-08_09-10-08 1.1.1 0.06820553404 -9.461309186816685
zni_28-02-08_09-10-08_09-10-08_09-10-08 1.1.1 0.070397865897 -9.750030043488255
zni_28-03-09_02-05-09_02-05-09_02-05-09 1.1.1 0.076651890804 -8.00328186055513
zni_28-03-12_09-12-12_09-12-12_09-12-12 1.1.1 0.121163322288 -15.698123400083505
zni_29-01-01_07-08-01_07-08-01_07-08-01 1.1.1 0.064444364084 -8.19894481060579
zni_29-01-01_08-08-01_08-08-01_08-08-01 1.1.1 0.072210490352 -7.959227211482995
zni_29-01-01_09-08-01_08-08-01_09-08-01 1.1.1 0.065807011125 -10.20003902530043
zni_29-01-01_09-08-01_09-08-01_09-08-01 1.1.1 0.070304556113 -9.44817314773644
zni_29-01-01_10-08-01_10-08-01_10-08-01 1.1.1 0.078482257494 -8.070242937903972
zni_29-02-04_03-03-04_03-03-04_03-03-04 1.1.1 0.08138080489 -7.356042275470118
zni_29-02-04_05-03-04_05-03-04_05-03-04 1.1.1 0.1140022653239999 -5.241827412818941
zni_29-02-08_06-10-08_06-10-08_06-10-08 1.1.1 0.063589039404 -7.650245074904618
zni_29-02-08_06-10-08_07-10-08_06-10-08 1.1.1 0.0579993206159999 -8.395124128997786
zni_29-02-08_06-10-08_07-10-08_07-10-08 1.1.1 0.07238231808 -9.239507086496277
zni_29-02-08_07-10-08_07-10-08_07-10-08 1.1.1 0.0709418072 -8.686896679494078
zni_29-02-08_08-10-08_08-10-08_08-10-08 1.1.1 0.0696787026 -8.144315396288079
zni_29-02-08_09-10-08_09-10-08_09-10-08 1.1.1 0.063536678832 -9.721816651028238
zni_29-02-08_10-10-08_10-10-08_10-10-08 1.1.1 0.073253855971 -8.07309257862205
zni_29-03-12_06-12-12_06-12-12_07-12-12 1.1.1 0.092309076036 -12.297542607804758
zni_29-03-12_08-12-12_08-12-12_08-12-12 1.1.1 0.096938634987 -10.928375725415645
zni_29-03-12_09-12-12_08-12-12_09-12-12 1.1.1 0.130326274845 -17.109073683514254
zni_29-03-12_09-12-12_09-12-12_08-12-12 1.1.1 0.14771760009 -18.05142924580603
zni_29-03-12_10-12-12_10-12-12_10-12-12 1.1.1 0.088777317174 -9.07493682994745
zni_29-05-09_01-03-09_01-03-09_01-03-09 1.1.1 0.1018518186159999 -8.199529945076106
zni_29-05-09_02-03-09_02-03-09_02-03-09 1.1.1 0.0856511600879999 -7.941762839333909
zni_29-05-09_05-03-09_05-03-09_05-03-09 1.1.1 0.140714447156 -6.1323701056124
zni_30-01-01_06-08-01_07-08-01_06-08-01 1.1.1 0.0523486312439999 -12.267735485409176
zni_30-01-01_07-08-01_07-08-01_06-08-01 1.1.1 0.0605904496229999 -13.089783032850466
zni_30-01-01_07-08-01_07-08-01_07-08-01 1.1.1 0.042470281563 -13.977162702538925
zni_30-01-01_08-08-01_08-08-01_08-08-01 1.1.1 0.0705478928579999 -12.94596447053449
zni_30-01-01_08-08-01_09-08-01_08-08-01 1.1.1 0.1116092865599999 -16.963058133968893
zni_30-01-01_10-08-01_10-08-01_10-08-01 1.1.1 0.0628033391929999 -8.260606195074017
zni_30-02-08_06-10-08_06-10-08_06-10-08 1.1.1 0.0850189117719999 -16.21162755053799
zni_30-02-08_07-10-08_06-10-08_06-10-08 1.1.1 0.0885218929709999 -15.039051319901304
zni_30-02-08_07-10-08_07-10-08_06-10-08 1.1.1 0.06886397574 -13.736998570761717
zni_30-02-08_07-10-08_07-10-08_07-10-08 1.1.1 0.0774226281249999 -16.357776222781126
zni_30-02-08_08-10-08_08-10-08_08-10-08 1.1.1 0.091053319966 -14.071554307720442
zni_30-02-08_08-10-08_08-10-08_09-10-08 1.1.1 0.1143500258799999 -16.281957623679414
zni_30-02-08_09-10-08_08-10-08_09-10-08 1.1.1 0.122106139246 -16.62695991808099
zni_30-02-08_09-10-08_09-10-08_09-10-08 1.1.1 0.121114505526 -16.8219013193997
zni_30-02-08_10-10-08_10-10-08_10-10-08 1.1.1 0.06985507878 -8.397237659833033
zni_30-03-09_05-05-09_05-05-09_05-05-09 1.1.1 0.110912525235 -8.033460547752775
zni_30-03-12_06-12-12_06-12-12_06-12-12 1.1.1 0.304989540652 -21.92865586957005
zni_30-03-12_06-12-12_06-12-12_07-12-12 1.1.1 0.256468224096 -22.1716259120346
zni_30-03-12_07-12-12_07-12-12_07-12-12 1.1.1 0.257470137332 -24.08898746661581
zni_30-03-12_08-12-12_08-12-12_09-12-12 1.1.1 0.120797836696 -15.69120668310231
zni_30-03-12_08-12-12_09-12-12_09-12-12 1.1.1 0.232200157728 -21.89406135758569
zni_30-03-12_09-12-12_08-12-12_08-12-12 1.1.1 0.211018304976 -22.01205091352206
zni_30-03-12_09-12-12_09-12-12_09-12-12 1.1.1 0.219590557758 -20.75707259891993
zra-d_28-02-06_28-02-06_28-02-06_28-02-06_28-02-06_04-02-06_04-02-06_04-02-06_04-02-06_04-02-06_04-02-06_04-02-06_04-02-06 1.1.1 0.1336989093139999 -5.086233253197747
zra-d_28-03-12_28-03-12_28-03-12_28-03-12_28-03-12_06-12-12_06-12-12_06-12-12_06-12-12_06-12-12_06-12-12_06-12-12_06-12-12 1.1.1 0.103066853243 -9.099343250782674
zra-d_28-03-12_28-03-12_28-03-12_28-03-12_28-03-12_09-12-12_09-12-12_09-12-12_09-12-12_09-12-12_09-12-12_09-12-12_09-12-12 1.1.1 0.102270058374 -10.719518206094213
zra-d_29-01-01_29-01-01_29-01-01_29-01-01_29-01-01_09-08-01_09-08-01_09-08-01_09-08-01_09-08-01_09-08-01_09-08-01_09-08-01 1.1.1 0.072916661888 -7.321943053118742
zra-d_29-02-06_29-02-06_29-02-06_29-02-06_29-02-06_02-02-06_02-02-06_02-02-06_02-02-06_02-02-06_02-02-06_02-02-06_02-02-06 1.1.1 0.099433267584 -5.1728840734122725
zra-d_29-02-08_29-02-08_29-02-08_29-02-08_29-02-08_08-10-08_08-10-08_08-10-08_08-10-08_08-10-08_08-10-08_08-10-08_08-10-08 1.1.1 0.092254602441 -7.574647149443697
zra-d_29-03-12_29-03-12_29-03-12_29-03-12_29-03-12_10-12-12_10-12-12_10-12-12_10-12-12_10-12-12_10-12-12_10-12-12_10-12-12 1.1.1 0.1217517490799999 -7.235900195181516
zul_29-01-01_31-01-01_16-01-01_06-08-01_06-08-01_06-08-01_06-08-01_06-08-01_06-08-01 1.1.1 0.082703686051 -6.929988137291471
zul_29-01-01_31-01-01_16-01-01_07-08-01_07-08-01_07-08-01_07-08-01_07-08-01_07-08-01 1.1.1 0.067611403145 -6.601857150449869
zul_29-01-01_31-01-01_16-01-01_08-08-01_08-08-01_08-08-01_08-08-01_08-08-01_08-08-01 1.1.1 0.098828127258 -6.9351296553904085
zul_29-01-01_31-01-01_16-01-01_09-08-01_09-08-01_09-08-01_09-08-01_09-08-01_09-08-01 1.1.1 0.084105607114 -5.51936477718893
zul_29-01-01_31-01-01_16-01-01_10-08-01_10-08-01_10-08-01_10-08-01_10-08-01_10-08-01 1.1.1 0.1197293079399999 -5.733529225275149
zul_29-02-06_31-02-06_16-02-06_01-02-06_01-02-06_01-02-06_01-02-06_01-02-06_01-02-06 1.1.1 0.140899242545 -4.752906489015053
zul_29-02-06_31-02-06_16-02-06_02-02-06_02-02-06_02-02-06_02-02-06_02-02-06_02-02-06 1.1.1 0.1164141662879999 -5.505898366971906
zul_29-02-06_31-02-06_16-02-06_04-02-06_04-02-06_04-02-06_04-02-06_04-02-06_04-02-06 1.1.1 0.1574760277079999 -4.768253544812974
zul_29-02-06_31-02-06_16-02-06_05-02-06_05-02-06_05-02-06_05-02-06_05-02-06_05-02-06 1.1.1 0.210686951824 -4.119784668098839
zul_29-02-06_31-02-06_16-02-06_None_None_None_None_None_None 1.1.1 0.079219089872 -6.991808003891201
zul_29-02-08_31-02-08_16-02-08_06-10-08_06-10-08_06-10-08_06-10-08_06-10-08_06-10-08 1.1.1 0.093434165479 -7.0108825017308725
zul_29-02-08_31-02-08_16-02-08_07-10-08_07-10-08_07-10-08_07-10-08_07-10-08_07-10-08 1.1.1 0.083590126048 -6.023917591467408
zul_29-02-08_31-02-08_16-02-08_08-10-08_08-10-08_08-10-08_08-10-08_08-10-08_08-10-08 1.1.1 0.1073815318079999 -7.150690065670948
zul_29-02-08_31-02-08_16-02-08_09-10-08_09-10-08_09-10-08_09-10-08_09-10-08_09-10-08 1.1.1 0.095669501109 -7.785885319229597
zul_29-02-08_31-02-08_16-02-08_10-10-08_10-10-08_10-10-08_10-10-08_10-10-08_10-10-08 1.1.1 0.116631997032 -5.266880190120818
zul_29-03-12_31-03-12_16-03-12_06-12-12_06-12-12_06-12-12_06-12-12_06-12-12_06-12-12 1.1.1 0.103813195828 -8.936218979734072
zul_29-03-12_31-03-12_16-03-12_07-12-12_07-12-12_07-12-12_07-12-12_07-12-12_07-12-12 1.1.1 0.1015713645919999 -9.53913762153429
zul_29-03-12_31-03-12_16-03-12_08-12-12_08-12-12_08-12-12_08-12-12_08-12-12_08-12-12 1.1.1 0.113645902909 -7.9387855459693535
zul_29-03-12_31-03-12_16-03-12_09-12-12_09-12-12_09-12-12_09-12-12_09-12-12_09-12-12 1.1.1 0.10483763436 -11.072476364414474
zul_29-03-12_31-03-12_16-03-12_10-12-12_10-12-12_10-12-12_10-12-12_10-12-12_10-12-12 1.1.1 0.134306732944 -7.281269399861607
zul_30-04-05_30-04-05_12-04-05_01-02-05_01-02-05_01-02-05_01-02-05_01-02-05_01-02-05 1.1.1 0.14711624424 -9.38344760487758
zul_30-04-05_30-04-05_12-04-05_03-02-05_03-02-05_03-02-05_03-02-05_03-02-05_03-02-05 1.1.1 0.162248848256 -8.129459389299411
zxd_11-01-01_11-01-01_07-08-01_07-08-01_07-08-01 1.1.3 0.0903298802036424 -19.645621043168784
zxd_11-01-01_11-01-01_09-08-01_09-08-01_09-08-01 1.1.2 0.11208004056 -23.26893861203241
zxd_11-01-01_12-01-01_06-08-01_06-08-01_06-08-01 1.1.3 0.172634661058324 -21.566337335989548
zxd_11-02-08_11-02-08_09-10-08_09-10-08_09-10-08 1.1.2 0.169032334381 -22.33659148734009
zxd_11-02-08_12-02-08_07-10-08_07-10-08_07-10-08 1.1.1 0.060281334722 -7.978813133359304
zxd_11-03-04_12-03-04_02-02-04_02-02-04_02-02-04 1.1.1 0.0726029746719999 -7.845958578682213
zxd_11-03-09_12-03-09_01-05-09_01-05-09_01-05-09 1.1.1 0.134155997813 -7.290179961057814
zxd_11-03-12_12-03-12_07-12-12_07-12-12_07-12-12 1.1.2 0.4507886322809999 -24.718861283332213
zxd_11-03-12_12-03-12_09-12-12_09-12-12_09-12-12 1.1.2 0.3064305891239999 -25.68979468423789
zxd_12-01-01_12-01-01_09-08-01_09-08-01_09-08-01 1.1.1 0.0764005937019999 -9.5828729663924
zxd_12-02-08_11-02-08_08-10-08_08-10-08_08-10-08 1.1.1 0.086535079854 -9.449990061394884
zxd_12-03-04_12-03-04_02-02-04_02-02-04_02-02-04 1.1.1 0.068915124327 -8.168196958279664
zxd_13-01-01_13-01-01_09-08-01_09-08-01_09-08-01 1.1.1 0.117926386956 -6.221722897762394
zxd_13-02-04_14-02-04_02-03-04_02-03-04_02-03-04 1.1.1 0.114238960686 -5.424279485362736
zxd_13-02-08_13-02-08_09-10-08_09-10-08_09-10-08 1.1.1 0.1182398214319999 -6.040724462733379
zxd_13-03-04_13-03-04_03-02-04_03-02-04_03-02-04 1.1.1 0.1638814170799999 -4.959744335564017
zxd_13-05-09_14-05-09_03-03-09_03-03-09_03-03-09 1.1.1 0.2011247072099999 -5.254769957058179
zxd_14-02-05_14-02-05_03-04-05_03-04-05_03-04-05 1.1.1 0.21538850949 -4.9765234292301015
zxd_14-03-12_13-03-12_07-12-12_07-12-12_07-12-12 1.1.1 0.116176863506 -6.354628421943389
zxd_14-03-12_13-03-12_09-12-12_09-12-12_09-12-12 1.1.1 0.110607037096 -6.2280078924886215
zxd_14-03-12_14-03-12_09-12-12_09-12-12_09-12-12 1.1.1 0.104371591452 -8.060160096703637
zxd_14-04-05_14-04-05_01-02-05_01-02-05_01-02-05 1.1.1 0.195900658506 -5.444746802786964
zxd_14-05-09_13-05-09_05-03-09_05-03-09_05-03-09 1.1.1 0.3243827859900001 -4.1904125510552666
zxd_15-03-09_15-03-09_02-05-09_02-05-09_02-05-09 1.1.1 0.206854317289 -4.744610568971154
zxd_16-01-01_16-01-01_07-08-01_07-08-01_07-08-01 1.1.1 0.098217201524 -6.077941091480007
zxd_16-02-06_16-02-06_03-02-06_04-02-06_03-02-06 1.1.1 0.186003172474 -4.666577158325617
zxd_16-02-06_16-02-06_04-02-06_03-02-06_04-02-06 1.1.1 0.174424422075 -4.252724054751878
zxd_16-03-12_16-03-12_09-12-12_09-12-12_09-12-12 1.1.1 0.094405819872 -8.442836476052339
zxd_16-05-09_16-05-09_05-03-09_05-03-09_05-03-09 1.1.1 0.25859986224 -4.272413733849846
zxd_17-12-12_17-12-12_02-03-12_02-03-12_02-03-12 1.1.2 0.951943474944 -30.242234095095093
zxd_20-10-08_20-10-08_01-02-08_01-02-08_01-02-08 1.1.5 0.1204876258367999 -24.96825375748559
zxd_20-10-08_20-10-08_02-02-08_02-02-08_02-02-08 1.1.1 0.11954650563 -5.816329756306581
zxd_20-12-12_21-12-12_05-03-12_05-03-12_05-03-12 1.1.1 0.220137050113 -4.980565262347418
zxd_21-10-08_21-10-08_01-02-08_01-02-08_01-02-08 1.1.1 0.112252880604 -6.538920536169448
zxd_21-12-12_20-12-12_02-03-12_02-03-12_02-03-12 1.1.1 0.0989675899349999 -8.301111573507232
zxd_21-12-12_20-12-12_05-03-12_05-03-12_05-03-12 1.1.1 0.21619237839 -4.959177992817554
zxd_22-08-01_22-08-01_02-01-01_02-01-01_02-01-01 1.1.1 0.102714921276 -5.282397484234047
zxd_23-08-01_18-08-01_04-01-01_04-01-01_04-01-01 1.1.1 0.108430941922 -6.016792443692693
zxd_23-08-01_23-08-01_02-01-01_02-01-01_02-01-01 1.1.2 0.076890707634 -12.090436450807228
zxd_23-08-01_23-08-01_04-01-01_04-01-01_04-01-01 1.1.2 0.0747719179379999 -11.327770828675128
zxd_23-10-08_23-10-08_04-02-08_04-02-08_04-02-08 1.1.2 0.089085443014 -13.236481351508536
zxd_23-12-12_23-12-12_04-03-12_04-03-12_04-03-12 1.1.1 0.128232958859 -6.591242211049285
zxd_33-11-02_33-11-02_01-01-02_01-01-02_01-01-02 1.1.3 0.1366937964633404 -22.591411134553777
zxd_33-11-02_33-11-02_03-01-02_04-01-02_04-01-02 1.1.3 0.1805182464230238 -22.740665596589853
zxd_34-11-10_34-11-10_01-06-10_01-06-10_02-06-10 1.1.2 0.4921275908615 -26.58438870992071
zxd_34-11-10_34-11-10_01-06-10_02-06-10_02-06-10 1.1.1 0.0724562805499999 -11.52320395297957
zxd_34-11-10_34-11-10_02-06-10_01-06-10_01-06-10 1.1.1 0.069386832807 -10.739474941790505
zxd_35-11-03_35-11-03_02-01-03_01-01-03_02-01-03 1.1.2 0.13098698808 -16.347382973522503
zxd_35-11-03_35-11-03_03-01-03_03-01-03_04-01-03 1.1.2 0.122892460712 -15.65510352257991
zxd_35-11-03_35-11-03_05-01-03_05-01-03_05-01-03 1.1.1 0.140095506375 -6.49409292273366
zxd_36-11-11_36-11-11_04-07-11_04-07-11_03-07-11 1.1.1 0.06582856662 -7.766704065411191
zyg-a_11-02-04_11-02-04_11-02-04_11-02-04_05-03-04_05-03-04_05-03-04_05-03-04_05-03-04_05-03-04_05-03-04 1.1.1 0.397779854943 -3.525911348272646
zyg-a_11-04-05_11-04-05_11-04-05_11-04-05_03-02-05_03-02-05_03-02-05_03-02-05_03-02-05_03-02-05_03-02-05 1.1.1 0.3721545919360001 -4.464806032709918
zyg-a_13-03-04_13-03-04_13-03-04_13-03-04_03-02-04_03-02-04_03-02-04_03-02-04_03-02-04_03-02-04_03-02-04 1.1.1 0.493230932352 -3.37593287834778
zyg-a_16-02-04_16-02-04_16-02-04_16-02-04_02-03-04_02-03-04_02-03-04_02-03-04_02-03-04_02-03-04_02-03-04 1.1.1 0.208540606365 -3.0803570787199392
zyg-a_16-02-04_16-02-04_16-02-04_16-02-04_04-03-04_04-03-04_04-03-04_04-03-04_04-03-04_04-03-04_04-03-04 1.1.1 0.3326799026340001 -3.10159442401997
zyg-a_16-02-06_16-02-06_16-02-06_16-02-06_03-02-06_03-02-06_03-02-06_03-02-06_03-02-06_03-02-06_03-02-06 1.1.1 0.52352131869 -2.8162413393400048
zyg-a_16-02-08_16-02-08_16-02-08_16-02-08_08-10-08_08-10-08_08-10-08_08-10-08_08-10-08_08-10-08_08-10-08 1.1.1 0.23055188741 -3.95477999573799
zyg-a_16-03-12_16-03-12_16-03-12_16-03-12_10-12-12_10-12-12_10-12-12_10-12-12_10-12-12_10-12-12_10-12-12 1.1.1 0.3104058321649999 -4.056482456245507
zyg-a_18-08-01_18-08-01_18-08-01_18-08-01_03-01-01_03-01-01_03-01-01_03-01-01_03-01-01_03-01-01_03-01-01 1.1.1 0.2408543621319999 -3.432257603090929
zyg-a_18-12-12_18-12-12_18-12-12_18-12-12_03-03-12_03-03-12_03-03-12_03-03-12_03-03-12_03-03-12_03-03-12 1.1.1 0.28635201474 -4.125380635861554
zyg-a_20-08-01_20-08-01_20-08-01_20-08-01_01-01-01_01-01-01_01-01-01_01-01-01_01-01-01_01-01-01_01-01-01 1.1.1 0.284418631841 -3.5231308149406613
zyg-a_21-12-12_21-12-12_21-12-12_21-12-12_03-03-12_03-03-12_03-03-12_03-03-12_03-03-12_03-03-12_03-03-12 1.1.1 0.3289531454839999 -3.8979956729019367
zyg-a_23-12-12_23-12-12_23-12-12_23-12-12_02-03-12_02-03-12_02-03-12_02-03-12_02-03-12_02-03-12_02-03-12 1.1.1 0.177171654212 -6.64041666228098
zyg-a_32-02-04_32-02-04_32-02-04_32-02-04_02-03-04_02-03-04_02-03-04_02-03-04_02-03-04_02-03-04_02-03-04 1.1.1 0.1621824220249999 -4.062830630988491
zyg-a_32-02-05_32-02-05_32-02-05_32-02-05_01-04-05_01-04-05_01-04-05_01-04-05_01-04-05_01-04-05_01-04-05 1.1.1 0.32553992245 -3.887848206340854
zyg-a_32-02-08_32-02-08_32-02-08_32-02-08_09-10-08_09-10-08_09-10-08_09-10-08_09-10-08_09-10-08_09-10-08 1.1.1 0.1780859820409999 -5.6653101060127
zyg-a_32-03-12_32-03-12_32-03-12_32-03-12_08-12-12_08-12-12_08-12-12_08-12-12_08-12-12_08-12-12_08-12-12 1.1.1 0.1691200909159999 -6.285825095863944
zyg_15-02-06_14-02-06_24-02-06_01-02-06_02-02-06 1.1.1 0.167439391776 -4.420751599621797
zyg_16-02-06_16-02-06_31-02-06_02-02-06_01-02-06 1.1.1 0.137912524008 -5.252177923084924
zyg_16-03-04_16-03-04_31-03-04_02-02-04_02-02-04 1.1.1 0.0861080282369999 -5.572025729346471
zyg_16-03-04_16-03-04_31-03-04_05-02-04_05-02-04 1.1.1 0.182548740778 -4.608335776355765
zyg_16-04-05_16-04-05_31-04-05_02-02-05_02-02-05 1.1.1 0.1195992924119999 -5.650118173869186
zyg_16-05-09_16-05-09_31-05-09_01-03-09_01-03-09 1.1.1 0.128327435304 -6.597320099722572
zyg_16-05-09_16-05-09_31-05-09_04-03-09_04-03-09 1.1.1 0.15531343856 -5.971677696280316
zyg_16-05-09_16-05-09_31-05-09_05-03-09_05-03-09 1.1.1 0.249507036507 -4.2618021130057855
zyg_21-10-08_21-10-08_25-10-08_04-02-08_04-02-08 1.1.1 0.141444094824 -5.554910066842333
zyg_21-12-12_21-12-12_25-12-12_04-03-12_04-03-12 1.1.1 0.1471414212479999 -6.181767177168854
zyl_16-01-01_16-01-01_29-01-01_06-08-01_06-08-01_06-08-01_06-08-01 1.1.1 0.0634456143279999 -5.643174294116518
zyl_16-01-01_16-01-01_29-01-01_08-08-01_08-08-01_08-08-01_08-08-01 1.1.1 0.09390718134 -5.128165975511539
zyl_16-01-01_16-01-01_29-01-01_09-08-01_09-08-01_09-08-01_09-08-01 1.1.1 0.10277716773 -6.702752941863345
zyl_16-02-05_16-02-05_29-02-05_03-04-05_03-04-05_03-04-05_03-04-05 1.1.1 0.200788327974 -4.320922519678679
zyl_16-02-06_16-02-06_29-02-06_01-02-06_01-02-06_01-02-06_01-02-06 1.1.1 0.1481549586709999 -4.822412748747062
zyl_16-02-08_16-02-08_29-02-08_06-10-08_06-10-08_06-10-08_06-10-08 1.1.1 0.083974708314 -6.681369046623745
zyl_16-02-08_16-02-08_29-02-08_09-10-08_09-10-08_09-10-08_09-10-08 1.1.1 0.101276844719 -6.515824132803509
zyl_16-05-09_16-05-09_29-05-09_02-03-09_02-03-09_02-03-09_02-03-09 1.1.1 0.126781177488 -7.227262347500966
