data_mix
_audit_aif_version 63df4e8
_exptl_method GCMC
_exptl_adsorptive co2/n2
_exptl_temperature 298
_adsorp_pressure 1000000
_simltn_code RASPA 2.0.41
_simltn_forcefield_adsorptive uff
_simltn_forcefield_adsorbent mm3
_units_temperature K
_units_pressure Pa
_units_loading mol/kg
_units_composition_type co2/n2=15/85

loop_
_adsnt_material_id
_simltn_size
_adsorp_amount_co2_absolute
_adsorp_amount_n2_absolute
abf_28-04-05_28-04-05_16-04-05_03-02-05_03-02-05_03-02-05 1.1.1 3.873023867885 17.724194819080004
abf_30-02-06_30-02-06_14-02-06_03-02-06_03-02-06_02-02-06 1.1.1 3.4154096949899992 17.265569296824
abf_30-02-06_30-02-06_14-02-06_04-02-06_04-02-06_02-02-06 1.1.1 3.0265586170199996 14.615872537572
abr_28-01-01_28-01-01_29-01-01_06-08-01_06-08-01_06-08-01 1.1.1 1.16061274568 4.2072212030900005
abr_28-01-01_29-01-01_28-01-01_07-08-01_07-08-01_07-08-01 1.1.1 1.1270751858799999 3.8078527435600003
abr_28-02-06_29-02-06_29-02-06_04-02-06_04-02-06_04-02-06 1.1.1 2.114541076516 9.049602124112
abr_28-02-08_29-02-08_28-02-08_07-10-08_07-10-08_07-10-08 1.1.1 1.1497456939319999 3.8201227895159993
abr_28-03-12_28-03-12_29-03-12_06-12-12_06-12-12_06-12-12 1.1.1 1.5387719457039999 3.612892505522999
abr_28-03-12_28-03-12_29-03-12_07-12-12_07-12-12_07-12-12 1.1.1 1.5794543478779997 3.4402297102579986
abr_28-03-12_29-03-12_29-03-12_09-12-12_09-12-12_09-12-12 1.1.1 1.5792519035080006 3.605242956796
abr_29-01-01_29-01-01_28-01-01_09-08-01_09-08-01_09-08-01 1.1.1 1.137338591376 3.6777790147929994
abr_29-01-01_29-01-01_29-01-01_06-08-01_06-08-01_07-08-01 1.1.1 1.256714595432 4.303787451712
abr_29-01-01_29-01-01_29-01-01_06-08-01_07-08-01_06-08-01 1.1.1 1.197909681025 4.1023445746
abr_29-01-01_29-01-01_29-01-01_06-08-01_07-08-01_07-08-01 1.1.1 1.1860981858319999 4.0228238730960015
abr_29-01-01_29-01-01_29-01-01_07-08-01_06-08-01_06-08-01 1.1.1 1.2801335245019998 4.3569456798839985
abr_29-01-01_29-01-01_29-01-01_07-08-01_06-08-01_07-08-01 1.1.1 1.25755594062 4.2070001677379985
abr_29-01-01_29-01-01_29-01-01_07-08-01_07-08-01_06-08-01 1.1.1 1.171495795708 4.112480885629998
abr_29-01-01_29-01-01_29-01-01_08-08-01_08-08-01_09-08-01 1.1.1 1.2903327008799998 4.4786191428999995
abr_29-01-01_29-01-01_29-01-01_08-08-01_09-08-01_08-08-01 1.1.1 1.287033529322 4.1708776813699995
abr_29-01-01_29-01-01_29-01-01_08-08-01_09-08-01_09-08-01 1.1.1 1.241386752872 4.034001770456
abr_29-01-01_29-01-01_29-01-01_09-08-01_08-08-01_08-08-01 1.1.1 1.3452102755120003 4.4163786688340005
abr_29-01-01_29-01-01_29-01-01_09-08-01_08-08-01_09-08-01 1.1.1 1.219477332591 4.1889512371130015
abr_29-01-01_29-01-01_29-01-01_09-08-01_09-08-01_08-08-01 1.1.1 1.232416775655 3.9188892059820004
abr_29-01-01_29-01-01_29-01-01_09-08-01_09-08-01_09-08-01 1.1.1 1.243013131877 3.828124755146999
abr_29-02-04_29-02-04_29-02-04_02-03-04_02-03-04_02-03-04 1.1.1 1.23623074605 4.116890782532
abr_29-02-06_29-02-06_29-02-06_04-02-06_03-02-06_03-02-06 1.1.1 2.126205420981 9.214638449799
abr_29-02-06_29-02-06_29-02-06_04-02-06_03-02-06_04-02-06 1.1.1 1.992923532765 8.736114099339
abr_29-02-08_28-02-08_29-02-08_06-10-08_06-10-08_06-10-08 1.1.1 1.196568264047 4.1619283549290005
abr_29-02-08_29-02-08_29-02-08_06-10-08_06-10-08_07-10-08 1.1.1 1.280187400503 4.159249464336
abr_29-02-08_29-02-08_29-02-08_06-10-08_07-10-08_06-10-08 1.1.1 1.163619805927 4.115164002566
abr_29-02-08_29-02-08_29-02-08_06-10-08_07-10-08_07-10-08 1.1.1 1.22370879772 3.955275724156
abr_29-02-08_29-02-08_29-02-08_07-10-08_06-10-08_06-10-08 1.1.1 1.1798612406720002 4.248789932255998
abr_29-02-08_29-02-08_29-02-08_07-10-08_06-10-08_07-10-08 1.1.1 1.2539295832189998 4.1015495173369985
abr_29-02-08_29-02-08_29-02-08_07-10-08_07-10-08_06-10-08 1.1.1 1.16862792054 3.996912510689
abr_29-02-08_29-02-08_29-02-08_08-10-08_08-10-08_09-10-08 1.1.1 1.311652910348 4.397035752802
abr_29-02-08_29-02-08_29-02-08_08-10-08_09-10-08_08-10-08 1.1.1 1.3251546878999998 4.05558645545
abr_29-02-08_29-02-08_29-02-08_08-10-08_09-10-08_09-10-08 1.1.1 1.2066025165899998 3.81707962975
abr_29-02-08_29-02-08_29-02-08_09-10-08_08-10-08_08-10-08 1.1.1 1.2760732719309995 4.286773810424
abr_29-02-08_29-02-08_29-02-08_09-10-08_08-10-08_09-10-08 1.1.1 1.288100854584 4.167088973456
abr_29-02-08_29-02-08_29-02-08_09-10-08_09-10-08_08-10-08 1.1.1 1.24911951471 3.856205703941999
abr_29-02-08_29-02-08_29-02-08_09-10-08_09-10-08_09-10-08 1.1.1 1.2930271496100003 3.71347206021
abr_29-02-08_29-02-08_29-02-08_10-10-08_10-10-08_10-10-08 1.1.1 1.6020139760799998 6.1901348855150005
abr_29-03-12_29-03-12_29-03-12_06-12-12_06-12-12_07-12-12 1.1.1 1.5730499054189997 3.6506279258069987
abr_29-03-12_29-03-12_29-03-12_06-12-12_07-12-12_06-12-12 1.1.1 1.5082208906760002 3.5624285553960005
abr_29-03-12_29-03-12_29-03-12_06-12-12_07-12-12_07-12-12 1.1.1 1.5734009466 3.5517474882999998
abr_29-03-12_29-03-12_29-03-12_07-12-12_06-12-12_06-12-12 1.1.1 1.556818159567 3.580773723186
abr_29-03-12_29-03-12_29-03-12_07-12-12_06-12-12_07-12-12 1.1.1 1.6028095390559998 3.696200759856
abr_29-03-12_29-03-12_29-03-12_07-12-12_07-12-12_06-12-12 1.1.1 1.4898095205629998 3.6163426121549986
abr_29-03-12_29-03-12_29-03-12_08-12-12_08-12-12_09-12-12 1.1.1 1.6912457338899998 4.059675865081998
abr_29-03-12_29-03-12_29-03-12_08-12-12_09-12-12_08-12-12 1.1.1 1.5400455567639997 3.719473812054
abr_29-03-12_29-03-12_29-03-12_08-12-12_09-12-12_09-12-12 1.1.1 1.602276541794 3.7250028028439996
abr_29-03-12_29-03-12_29-03-12_09-12-12_08-12-12_08-12-12 1.1.1 1.6972949863500002 3.924412250792
abr_29-03-12_29-03-12_29-03-12_09-12-12_08-12-12_09-12-12 1.1.1 1.659045058719 3.8719668666870017
abr_29-03-12_29-03-12_29-03-12_09-12-12_09-12-12_08-12-12 1.1.1 1.6909137971640005 3.6214331710710006
abr_29-05-09_29-05-09_29-05-09_03-03-09_03-03-09_03-03-09 1.1.1 2.3272336745 9.35743503004
abr_30-01-01_30-01-01_30-01-01_08-08-01_09-08-01_09-08-01 1.1.1 1.0562537280719997 2.2196275276229995
abr_30-02-08_30-02-08_30-02-08_08-10-08_09-10-08_09-10-08 1.1.1 1.184348953494 2.1394959631379997
abr_30-03-12_30-03-12_30-03-12_08-12-12_09-12-12_09-12-12 1.1.1 1.581075023385 2.1184194019619995
acs-a_29-02-08_10-10-08_10-10-08_10-10-08 1.1.1 2.004480722862 8.682483836295
acs-a_29-05-09_05-03-09_05-03-09_05-03-09 1.1.1 4.0810295932530005 19.245884574423002
acs-a_30-01-01_09-08-01_09-08-01_08-08-01 1.1.1 1.263152547076 2.8324948073110003
acs-f_12-03-09_01-05-09_01-05-09_01-05-09 3.2.2 1.458061337595353 0.09985018471270396
acs-f_14-01-01_10-08-01_10-08-01_10-08-01 1.1.1 1.0379768208329998 3.0432953616579996
acs-f_14-02-04_02-03-04_02-03-04_02-03-04 1.1.1 0.9693693200560001 2.566299314168
acs-f_14-02-06_None_None_None 1.1.2 1.2927530199609998 2.140248344195
acs-f_14-03-12_09-12-12_09-12-12_09-12-12 1.1.1 1.294038022575 2.039913053292
acs-f_16-01-01_06-08-01_06-08-01_06-08-01 1.1.1 0.8422502906920002 2.2932728654159997
acs-f_16-02-06_03-02-06_04-02-06_04-02-06 1.1.1 1.1396286763119998 2.8643728276800013
acs-f_16-02-06_05-02-06_05-02-06_05-02-06 1.1.1 1.575927950608 5.918465557300003
acs-f_17-08-01_05-01-01_05-01-01_05-01-01 2.1.1 1.355031978813 3.0650723358389995
acs-f_17-12-12_01-03-12_01-03-12_01-03-12 2.2.1 4.34605139647525 1.1881064661949998
acs-f_33-11-02_03-01-02_03-01-02_03-01-02 2.2.1 1.120220147655 1.6074484287434998
acs-f_33-11-02_04-01-02_04-01-02_03-01-02 2.2.1 1.4195976692755 1.5655867344005
acs-f_36-11-11_03-07-11_04-07-11_04-07-11 2.2.1 1.2271264569320002 1.6104562666549995
acs-g_11-03-12_09-12-12_09-12-12_09-12-12 1.1.2 2.1382293335625 2.2175874427500006
acs-g_35-11-03_02-01-03_02-01-03_01-01-03 1.1.5 2.3985700473672003 1.1272921494058001
aea-a_28-02-08_28-02-08_16-02-08_16-02-08_07-10-08_07-10-08_07-10-08_07-10-08_07-10-08_07-10-08_07-10-08_07-10-08_07-10-08 1.1.1 1.5350071344959997 6.1441598370899975
aea-a_28-04-05_28-04-05_16-04-05_16-04-05_02-02-05_02-02-05_02-02-05_02-02-05_02-02-05_02-02-05_02-02-05_02-02-05_02-02-05 1.1.1 2.254313944687 9.062097466617
aea-a_28-04-05_28-04-05_16-04-05_16-04-05_03-02-05_03-02-05_03-02-05_03-02-05_03-02-05_03-02-05_03-02-05_03-02-05_03-02-05 1.1.1 3.4379076776959994 15.916655529471994
aea-a_30-01-01_30-01-01_11-01-01_11-01-01_08-08-01_08-08-01_08-08-01_08-08-01_08-08-01_08-08-01_08-08-01_08-08-01_08-08-01 1.1.1 1.1796115475570002 3.652654780227
aea-a_30-01-01_30-01-01_11-01-01_11-01-01_10-08-01_10-08-01_10-08-01_10-08-01_10-08-01_10-08-01_10-08-01_10-08-01_10-08-01 1.1.1 1.469922515005 6.029692306855002
aea-a_30-02-06_30-02-06_11-02-06_11-02-06_02-02-06_02-02-06_02-02-06_02-02-06_02-02-06_02-02-06_02-02-06_02-02-06_02-02-06 1.1.1 1.3674394081919996 5.392250945664
aea-a_30-02-08_30-02-08_11-02-08_11-02-08_06-10-08_06-10-08_06-10-08_06-10-08_06-10-08_06-10-08_06-10-08_06-10-08_06-10-08 1.1.1 1.160133709986 3.586299391178001
aea-a_30-05-09_30-05-09_11-05-09_11-05-09_04-03-09_04-03-09_04-03-09_04-03-09_04-03-09_04-03-09_04-03-09_04-03-09_04-03-09 1.1.1 2.48923785664 10.111855081472
afi_28-02-06_04-02-06_04-02-06_03-02-06_04-02-06 1.1.1 1.981016053938 8.566221432681001
afi_30-03-09_03-05-09_03-05-09_03-05-09_03-05-09 1.1.1 2.0364716865999997 6.9394350928
afw-a_28-04-05_28-04-05_02-02-05_02-02-05_02-02-05_02-02-05_02-02-05_02-02-05 1.1.1 2.8446450243820003 11.711523673997998
afw_28-02-04_02-03-04_01-03-04 1.1.1 1.2162017831799998 4.381752339964
afw_29-02-04_01-03-04_02-03-04 1.1.1 1.3088129526539996 4.611768756542
afw_29-02-08_06-10-08_06-10-08 1.1.1 1.180144057053 4.2118639133430005
afw_29-03-12_06-12-12_06-12-12 1.1.1 1.421136304966 3.4644761720239994
afw_30-05-09_01-03-09_02-03-09 1.1.1 1.3647292017030002 3.7095342007679997
afx_29-03-12_29-03-12_08-12-12_08-12-12_08-12-12_08-12-12_08-12-12_08-12-12_08-12-12 1.1.1 1.7612067229799997 5.090775259295999
afy_30-01-01_30-01-01_09-08-01_09-08-01_09-08-01_09-08-01_09-08-01 1.1.1 1.1204371150090002 2.6168326101900004
afy_30-03-12_30-03-12_09-12-12_09-12-12_09-12-12_09-12-12_09-12-12 1.1.1 1.7670083144649993 2.4294095826399995
agw-a_28-02-04_16-02-04_16-02-04_16-02-04_02-03-04_02-03-04_02-03-04_02-03-04_02-03-04_02-03-04_02-03-04_02-03-04 1.1.1 2.458260957453 12.267377166108004
agw-a_28-02-06_16-02-06_16-02-06_16-02-06_01-02-06_01-02-06_01-02-06_01-02-06_01-02-06_01-02-06_01-02-06_01-02-06 1.1.1 4.3800478398200005 22.39956668676
agw-a_28-02-06_16-02-06_16-02-06_16-02-06_03-02-06_03-02-06_03-02-06_03-02-06_03-02-06_03-02-06_03-02-06_03-02-06 1.1.1 6.070674711768 32.319718922519996
agw-a_28-02-08_16-02-08_16-02-08_16-02-08_06-10-08_06-10-08_06-10-08_06-10-08_06-10-08_06-10-08_06-10-08_06-10-08 1.1.1 2.573752048166 12.279916135773
agw-a_28-02-08_16-02-08_16-02-08_16-02-08_09-10-08_09-10-08_09-10-08_09-10-08_09-10-08_09-10-08_09-10-08_09-10-08 1.1.1 2.3921295187609997 10.543978669269
agw-a_28-03-04_16-03-04_16-03-04_16-03-04_01-02-04_01-02-04_01-02-04_01-02-04_01-02-04_01-02-04_01-02-04_01-02-04 1.1.1 2.973067583585999 14.752589258808
agw-a_28-03-12_16-03-12_16-03-12_16-03-12_09-12-12_09-12-12_09-12-12_09-12-12_09-12-12_09-12-12_09-12-12_09-12-12 1.1.1 2.5307889334679996 10.121577309067998
agw-a_30-03-09_11-03-09_11-03-09_11-03-09_02-05-09_02-05-09_02-05-09_02-05-09_02-05-09_02-05-09_02-05-09_02-05-09 1.1.1 2.6960123568560004 10.359165318684
agw-a_30-03-09_12-03-09_12-03-09_12-03-09_01-05-09_01-05-09_01-05-09_01-05-09_01-05-09_01-05-09_01-05-09_01-05-09 1.1.1 3.0545616048000004 12.560536999032
agw-a_30-03-12_12-03-12_12-03-12_12-03-12_06-12-12_06-12-12_06-12-12_06-12-12_06-12-12_06-12-12_06-12-12_06-12-12 1.1.1 2.2697274394150004 4.921986479745
alb-x-d_28-01-01_29-01-01_28-01-01_07-08-01_07-08-01_07-08-01_07-08-01 1.1.1 1.1256529274999998 4.14799074
alb-x-d_28-02-08_29-02-08_28-02-08_10-10-08_10-10-08_10-10-08_10-10-08 1.1.1 1.5981040625550005 6.5511091011869995
alb-x-d_28-03-12_29-03-12_28-03-12_09-12-12_09-12-12_09-12-12_09-12-12 1.1.1 1.537220476827 3.636913451157002
alb-x-d_29-02-06_29-02-06_29-02-06_01-02-06_01-02-06_02-02-06_02-02-06 1.1.1 1.8362577641289997 7.429769116157996
alb-x-d_29-02-06_29-02-06_29-02-06_03-02-06_03-02-06_04-02-06_04-02-06 1.1.1 2.286810426107 10.039504284063
alb-x-d_29-02-06_29-02-06_29-02-06_03-02-06_04-02-06_04-02-06_04-02-06 1.1.1 2.2471569983990003 9.823608181735999
alb-x-d_29-02-06_29-02-06_29-02-06_04-02-06_03-02-06_04-02-06_03-02-06 1.1.1 2.37754531557 10.336910675976
alb-x-d_29-03-12_28-03-12_29-03-12_06-12-12_06-12-12_06-12-12_06-12-12 1.1.1 1.5320473505499996 3.994088849569
ana-b_28-02-04_30-02-04_02-03-04_02-03-04_02-03-04_02-03-04 1.1.1 0.90656755637 3.033935226126
ana-b_28-02-06_30-02-06_05-02-06_05-02-06_05-02-06_05-02-06 1.1.1 2.3933016299810004 10.807949135733
ana-b_28-02-08_29-02-08_09-10-08_09-10-08_09-10-08_09-10-08 1.1.1 1.2314427350339998 3.727261485966
ana-b_28-02-08_30-02-08_09-10-08_09-10-08_09-10-08_09-10-08 1.1.1 1.117919854631 2.7023764299089996
ana-b_28-03-12_30-03-12_06-12-12_06-12-12_06-12-12_06-12-12 1.1.1 1.4075839506429997 2.7165189013430004
ana-b_28-03-12_30-03-12_07-12-12_07-12-12_07-12-12_07-12-12 1.1.1 1.3217200884479998 2.5440759887519997
ana-b_28-03-12_30-03-12_09-12-12_09-12-12_09-12-12_09-12-12 1.1.1 1.4889032866819991 2.651588270562
ana-b_28-04-05_30-04-05_02-02-05_02-02-05_02-02-05_02-02-05 1.1.1 1.6659081776699998 4.3812708508950005
ana-b_28-05-09_30-05-09_02-03-09_02-03-09_02-03-09_02-03-09 1.1.1 1.4503220924200002 4.591030410119999
ana-b_28-05-09_30-05-09_03-03-09_03-03-09_03-03-09_03-03-09 1.1.1 2.0035377888520003 7.71029462988
ana-b_29-01-01_30-01-01_10-08-01_10-08-01_10-08-01_10-08-01 1.1.1 1.2979797184999995 4.944513134699999
ana-b_29-02-04_30-02-04_05-03-04_05-03-04_05-03-04_05-03-04 1.1.1 2.0816078400299998 8.649486335479999
ana-b_29-02-05_30-02-05_01-04-05_01-04-05_01-04-05_01-04-05 1.1.1 1.8745134458370003 5.344604211980999
ana-b_29-02-05_30-02-05_03-04-05_03-04-05_03-04-05_03-04-05 1.1.1 2.2222699078740002 7.417087216044
ana-b_29-03-04_30-03-04_03-02-04_03-02-04_03-02-04_03-02-04 1.1.1 1.545002387868 5.65887010111
ana-b_29-03-09_30-03-09_02-05-09_02-05-09_02-05-09_02-05-09 1.1.1 1.592468133461 4.6554644734020005
ana-b_29-03-09_30-03-09_03-05-09_03-05-09_03-05-09_03-05-09 1.1.1 2.14620039725 7.871109874810001
ana-b_29-03-09_30-03-09_04-05-09_04-05-09_04-05-09_04-05-09 1.1.1 2.0316464811 7.032728208180001
ana-b_29-03-12_28-03-12_10-12-12_10-12-12_10-12-12_10-12-12 1.1.1 1.785712247432 5.687038772337002
ana-b_29-03-12_30-03-12_09-12-12_09-12-12_09-12-12_09-12-12 1.1.1 1.484777972531 2.7287413921320005
ana-b_29-05-09_30-05-09_05-03-09_05-03-09_05-03-09_05-03-09 1.1.1 2.6660264716800004 11.266999810559998
ana-b_30-01-01_28-01-01_09-08-01_09-08-01_09-08-01_09-08-01 1.1.1 1.03100755543 2.834963319911
ana-b_30-01-01_28-01-01_10-08-01_10-08-01_10-08-01_10-08-01 1.1.1 1.223229274176 4.748974824056
ana-b_30-02-05_28-02-05_03-04-05_03-04-05_03-04-05_03-04-05 1.1.1 2.1292233635190003 7.155704936331
ana-b_30-02-05_29-02-05_02-04-05_02-04-05_02-04-05_02-04-05 1.1.1 1.6225567126559999 4.534038676728
ana-b_30-02-05_29-02-05_04-04-05_04-04-05_04-04-05_04-04-05 1.1.1 2.0445293299200005 6.637646615853
ana-b_30-02-08_28-02-08_06-10-08_06-10-08_06-10-08_06-10-08 1.1.1 0.991704183027 3.022134667359
ana-b_30-02-08_29-02-08_09-10-08_09-10-08_09-10-08_09-10-08 1.1.1 1.1674644036939998 2.847976680058
ana-b_30-03-04_28-03-04_03-02-04_03-02-04_03-02-04_03-02-04 1.1.1 1.468316686056 5.413599867239001
ana-b_30-03-09_29-03-09_01-05-09_01-05-09_01-05-09_01-05-09 1.1.1 1.8390629871809991 5.673255510257999
ana-b_30-03-12_28-03-12_10-12-12_10-12-12_10-12-12_10-12-12 1.1.1 1.6856220656999998 4.2773270649769985
ana-b_30-03-12_29-03-12_06-12-12_06-12-12_06-12-12_06-12-12 1.1.1 1.451008908761 2.758209936105999
ana-b_30-03-12_29-03-12_07-12-12_07-12-12_07-12-12_07-12-12 1.1.1 1.4153216162669997 2.638794338154
ana-b_30-03-12_29-03-12_10-12-12_10-12-12_10-12-12_10-12-12 1.1.1 1.673272067326 4.432936716403001
ana-b_30-04-05_28-04-05_01-02-05_01-02-05_01-02-05_01-02-05 1.1.1 1.8701728099200001 5.31547844448
ana-b_30-04-05_28-04-05_04-02-05_04-02-05_04-02-05_04-02-05 1.1.1 2.1273768476750003 6.6530885075000015
ana-b_31-02-05_29-02-05_02-04-05_02-04-05_02-04-05_02-04-05 1.1.1 1.841735911584 6.092708695532
ana-b_31-02-05_29-02-05_04-04-05_04-04-05_04-04-05_04-04-05 1.1.1 2.3590067320159998 8.499965474351999
ana-f_11-01-01_13-01-01_06-08-01_06-08-01_06-08-01 1.1.1 2.469935273496 12.079166588092
ana-f_11-02-08_13-02-08_06-10-08_06-10-08_06-10-08 1.1.1 2.4275284910560004 11.54034878912
ana-f_11-02-08_15-02-08_06-10-08_06-10-08_06-10-08 1.1.1 3.3130812503039997 16.858578351552
ana-f_11-03-04_15-02-04_None_None_None 1.1.1 2.308461137829 10.771642956348
ana-f_11-03-12_13-03-12_06-12-12_06-12-12_06-12-12 1.1.1 2.682466334954999 10.658541060915
ana-f_11-04-05_12-02-05_None_None_None 1.1.1 2.3250504112079997 3.906462250036
ana-f_11-05-09_14-03-09_None_None_None 1.1.1 2.232645344832 8.454356853096002
ana-f_12-01-01_12-01-01_10-08-01_10-08-01_10-08-01 1.1.1 2.17316982931 9.361175079099999
ana-f_12-01-01_13-01-01_06-08-01_06-08-01_06-08-01 1.1.1 2.4648620471640004 11.485281685697998
ana-f_12-01-01_14-01-01_06-08-01_06-08-01_06-08-01 1.1.1 2.466680419782 11.399539868775001
ana-f_12-01-01_16-01-01_06-08-01_06-08-01_06-08-01 1.1.1 2.076105415283 9.383364924602999
ana-f_12-01-01_16-01-01_07-08-01_07-08-01_07-08-01 1.1.1 1.90354672342 8.590525767024
ana-f_12-02-04_14-03-04_None_None_None 1.1.1 1.5338242381469995 5.627831091171
ana-f_12-02-04_32-02-04_01-03-04_01-03-04_01-03-04 1.1.1 2.8247767018559995 12.244467355248
ana-f_12-02-08_13-02-08_06-10-08_06-10-08_06-10-08 1.1.1 2.490717103294 11.107333205938001
ana-f_12-02-08_15-02-08_06-10-08_06-10-08_06-10-08 1.1.1 3.1904186331790005 15.734844469492002
ana-f_12-03-09_16-05-09_None_None_None 1.1.1 1.978116876599 6.334413079134
ana-f_12-03-09_32-05-09_None_None_None 1.1.1 2.331128520184 7.2376932722720015
ana-f_13-01-01_23-08-01_None_None_None 1.1.1 1.87109564592 8.082808475019997
ana-f_13-02-04_12-02-04_02-03-04_02-03-04_02-03-04 1.1.1 2.501724470076 10.804597397875
ana-f_13-02-04_13-03-04_None_None_None 1.1.1 2.571652547159 11.983225434252999
ana-f_13-05-09_12-03-09_None_None_None 1.1.1 2.3466952432749997 8.277299628311
ana-f_14-01-01_17-08-01_None_None_None 1.1.1 1.487585303204 5.052199768356001
ana-f_14-01-03_35-11-03_None_None_None 1.1.1 1.8692493038279991 4.3867980496799985
ana-f_14-02-04_12-02-04_01-03-04_01-03-04_01-03-04 1.1.1 2.9935015996890004 13.101349877133
ana-f_14-02-04_12-02-04_02-03-04_02-03-04_02-03-04 1.1.1 2.47052838368 10.756076150400002
ana-f_14-02-04_16-03-04_None_None_None 1.1.1 2.133254798272 9.36441952002
ana-f_14-02-06_12-02-06_None_None_None 1.1.1 1.8409438339200008 7.6613549702400014
ana-f_14-02-08_12-02-08_06-10-08_06-10-08_06-10-08 1.1.1 2.368442334073 10.432948717486001
ana-f_14-02-08_19-10-08_None_None_None 1.1.1 1.989171518727 8.525614644327
ana-f_14-03-04_14-02-04_None_None_None 1.1.1 2.4764043728089997 11.114315435885997
ana-f_14-03-09_14-05-09_None_None_None 1.1.1 3.113566919994 14.033158405299003
ana-f_14-03-12_12-03-12_06-12-12_06-12-12_06-12-12 1.1.1 2.638211074562 10.053697017655999
ana-f_15-05-09_11-03-09_None_None_None 1.1.1 2.932663187083 12.804289068752999
ana-f_16-01-01_11-01-01_07-08-01_07-08-01_07-08-01 1.1.1 1.927218091548 8.979845078012001
ana-f_16-02-05_13-04-05_None_None_None 1.1.1 2.8306701713809996 11.928396416728999
ana-f_16-02-05_14-04-05_None_None_None 1.1.1 2.7287322505300007 11.428908654279999
ana-f_16-02-05_32-04-05_None_None_None 1.1.1 2.745902771577 11.335569356614997
ana-f_16-02-06_32-02-06_None_None_None 1.1.1 2.647323141865999 11.734803749127998
ana-f_16-02-08_11-02-08_06-10-08_06-10-08_06-10-08 1.1.1 2.010907917036 9.091056290463001
ana-f_16-03-04_15-02-04_None_None_None 1.1.1 2.8268265788840012 14.191373002323994
ana-f_16-03-04_32-02-04_None_None_None 1.1.1 2.219341498664 9.570539177084001
ana-f_16-03-12_12-03-12_06-12-12_06-12-12_06-12-12 1.1.1 2.348700543088 8.333168440976001
ana-f_16-04-05_15-02-05_None_None_None 1.1.1 3.6108581514180007 16.955733278518995
ana-f_17-08-01_20-08-01_01-01-01_01-01-01_01-01-01 1.1.1 2.6663694051329996 12.995858088738
ana-f_17-08-01_20-08-01_02-01-01_02-01-01_02-01-01 1.1.1 2.0242502845950003 9.33387538083
ana-f_17-10-08_19-10-08_01-02-08_01-02-08_01-02-08 1.1.1 2.1999366880920004 10.215933698256
ana-f_17-10-08_23-10-08_02-02-08_02-02-08_02-02-08 1.1.1 1.949482480302 7.475167921158
ana-f_17-12-12_20-12-12_02-03-12_02-03-12_02-03-12 1.1.1 2.5077220012879997 9.73248483872
ana-f_17-12-12_23-12-12_01-03-12_01-03-12_01-03-12 1.1.1 2.4526918924409995 8.487060152823
ana-f_18-08-01_32-01-01_None_None_None 1.1.1 1.9013762016690003 7.554477266335999
ana-f_18-10-08_17-10-08_01-02-08_01-02-08_01-02-08 1.1.1 1.7372470503200002 7.169909014258
ana-f_18-10-08_32-02-08_None_None_None 1.1.1 1.9103253551499997 7.362997813479999
ana-f_18-12-12_17-12-12_01-03-12_01-03-12_01-03-12 1.1.1 2.4817589701980003 8.307445346747999
ana-f_19-08-01_18-08-01_02-01-01_02-01-01_02-01-01 1.1.1 2.248916779984 10.672922549296002
ana-f_20-08-01_14-01-01_None_None_None 1.1.1 2.4030916655919996 11.211263871099998
ana-f_20-12-12_12-03-12_None_None_None 1.1.1 1.89039114779 5.277608748324
ana-f_23-08-01_17-08-01_01-01-01_01-01-01_01-01-01 1.1.1 2.106123858036 9.46565981757
ana-f_23-10-08_23-10-08_01-02-08_01-02-08_01-02-08 1.1.1 2.6741561035199997 12.462548392808
ana-f_23-12-12_12-03-12_None_None_None 1.1.1 2.6030718761999996 3.24300117708
ana-f_23-12-12_17-12-12_02-03-12_02-03-12_02-03-12 1.1.1 2.1760510532799997 6.66092498344
ana-f_32-01-01_12-01-01_06-08-01_06-08-01_06-08-01 1.1.1 2.5639984853 11.643252069036
ana-f_32-01-02_33-11-02_None_None_None 1.1.1 1.658728361554 4.609981905122
ana-f_32-02-08_17-10-08_None_None_None 1.1.1 1.727985115168 5.862992132384001
ana-f_32-02-08_23-10-08_None_None_None 1.1.1 1.9754177851199999 7.878885115039999
ana-f_32-05-09_14-03-09_None_None_None 1.1.1 3.226041349968 14.2436186436
ana-f_32-06-10_34-11-10_None_None_None 1.1.1 1.6362076934600005 4.395516256872002
ana-f_32-07-11_36-11-11_None_None_None 1.1.1 1.6278016990859998 4.38939685773
ana-f_33-11-02_33-11-02_01-01-02_02-01-02_02-01-02 1.1.1 1.0948683457659998 3.1329688002259997
ana-f_33-11-02_33-11-02_02-01-02_01-01-02_01-01-02 1.1.1 1.3007501304120002 3.2258964679200006
ana-f_34-11-10_34-11-10_01-06-10_01-06-10_02-06-10 1.1.1 1.1374116321149998 3.4546909596749993
ana-f_34-11-10_34-11-10_01-06-10_02-06-10_02-06-10 1.1.1 1.0702244137960002 3.0036475165380008
ana-f_35-11-03_32-01-03_None_None_None 1.1.1 1.889289455372 4.6382223183999995
ana-f_35-11-03_35-11-03_01-01-03_01-01-03_01-01-03 1.1.1 1.833548111228 4.8661410961
ana-f_35-11-03_35-11-03_01-01-03_01-01-03_02-01-03 1.1.1 1.6119577437659995 4.453222736376
ana-f_35-11-03_35-11-03_02-01-03_02-01-03_02-01-03 1.1.1 1.171388513184 3.7733696557199994
ana-f_35-11-03_35-11-03_04-01-03_03-01-03_04-01-03 1.1.1 2.2366898172089997 8.470530306698999
ana-f_36-11-11_36-11-11_01-07-11_01-07-11_02-07-11 1.1.1 0.9505820231299998 3.4007220620450003
ana-f_36-11-11_36-11-11_01-07-11_02-07-11_02-07-11 1.1.1 0.8646874608080002 3.008227125992
ana-f_36-11-11_36-11-11_04-07-11_03-07-11_03-07-11 1.1.1 1.8113060858070005 7.8091945265410025
ana_30-02-08_07-10-08 1.1.1 0.8018919663859998 1.960960323567
asf-a_16-04-05_28-04-05_28-04-05_01-02-05_01-02-05_01-02-05_01-02-05_01-02-05_01-02-05_01-02-05_01-02-05 1.1.1 5.2745367537200005 25.16214427713201
asf-a_16-04-05_28-04-05_28-04-05_02-02-05_02-02-05_02-02-05_02-02-05_02-02-05_02-02-05_02-02-05_02-02-05 1.1.1 4.543151739399 21.509434593387
asf_31-04-05_29-04-05_01-02-05_01-02-05 1.1.1 2.709536814075 10.49543041456
asn_11-01-01_11-01-01_11-01-01_11-01-01_28-01-01_28-01-01_07-08-01_07-08-01_07-08-01_07-08-01_07-08-01_07-08-01_07-08-01_07-08-01 1.1.1 1.062791102806 3.848602838368
asn_11-02-06_11-02-06_11-02-06_11-02-06_30-02-06_30-02-06_02-02-06_02-02-06_02-02-06_02-02-06_02-02-06_02-02-06_02-02-06_02-02-06 1.1.1 1.177447429056 4.865589347884
asn_11-03-09_11-03-09_11-03-09_11-03-09_29-03-09_29-03-09_04-05-09_04-05-09_04-05-09_04-05-09_04-05-09_04-05-09_04-05-09_04-05-09 1.1.1 2.3399304549799997 9.465636917284
asn_11-05-09_11-05-09_11-05-09_11-05-09_29-03-09_29-03-09_None_None_None_None_None_None_None_None 1.1.1 1.3966583301000002 3.173047839175
asn_12-02-04_12-02-04_12-02-04_12-02-04_29-03-04_29-03-04_None_None_None_None_None_None_None_None 1.1.1 0.9467729068739998 2.250480577766
asn_12-02-06_12-02-06_12-02-06_12-02-06_29-02-06_29-02-06_None_None_None_None_None_None_None_None 1.1.1 0.9890752501260001 3.009314058894
asn_12-03-04_12-03-04_12-03-04_12-03-04_29-03-04_29-03-04_03-02-04_03-02-04_03-02-04_03-02-04_03-02-04_03-02-04_03-02-04_03-02-04 1.1.1 1.7668583840880001 7.091395213223999
asn_12-03-04_12-03-04_12-03-04_12-03-04_30-03-04_30-03-04_02-02-04_02-02-04_02-02-04_02-02-04_02-02-04_02-02-04_02-02-04_02-02-04 1.1.1 0.9104613987219999 2.7087546667860005
asn_12-03-09_12-03-09_12-03-09_12-03-09_29-03-09_29-03-09_01-05-09_01-05-09_01-05-09_01-05-09_01-05-09_01-05-09_01-05-09_01-05-09 1.1.1 1.969636977637 7.252992684139999
asn_12-03-09_12-03-09_12-03-09_12-03-09_29-03-09_29-03-09_02-05-09_02-05-09_02-05-09_02-05-09_02-05-09_02-05-09_02-05-09_02-05-09 1.1.1 1.681581861504 5.8256250842079975
asn_12-03-09_12-03-09_12-03-09_12-03-09_29-03-09_29-03-09_04-05-09_04-05-09_04-05-09_04-05-09_04-05-09_04-05-09_04-05-09_04-05-09 1.1.1 2.2634898485250003 9.058914297251
asn_13-01-01_13-01-01_13-01-01_13-01-01_29-01-01_29-01-01_09-08-01_09-08-01_09-08-01_09-08-01_09-08-01_09-08-01_09-08-01_09-08-01 1.1.1 1.4550821045880002 5.562915670020001
asn_13-02-08_13-02-08_13-02-08_13-02-08_29-02-08_29-02-08_08-10-08_08-10-08_08-10-08_08-10-08_08-10-08_08-10-08_08-10-08_08-10-08 1.1.1 1.6590921851299998 6.574292343822
asn_13-03-12_13-03-12_13-03-12_13-03-12_30-03-12_30-03-12_09-12-12_09-12-12_09-12-12_09-12-12_09-12-12_09-12-12_09-12-12_09-12-12 1.1.1 1.5500431299 3.882947123338
asn_14-02-08_14-02-08_14-02-08_14-02-08_29-02-08_29-02-08_07-10-08_07-10-08_07-10-08_07-10-08_07-10-08_07-10-08_07-10-08_07-10-08 1.1.1 1.448358203256 5.698633224971997
asn_14-02-08_14-02-08_14-02-08_14-02-08_29-02-08_29-02-08_09-10-08_09-10-08_09-10-08_09-10-08_09-10-08_09-10-08_09-10-08_09-10-08 1.1.1 1.4249571952199998 5.376023879771999
asn_14-02-08_14-02-08_14-02-08_14-02-08_30-02-08_30-02-08_10-10-08_10-10-08_10-10-08_10-10-08_10-10-08_10-10-08_10-10-08_10-10-08 1.1.1 1.5972073384799998 6.784953720360002
asn_14-03-09_14-03-09_14-03-09_14-03-09_29-03-09_29-03-09_03-05-09_03-05-09_03-05-09_03-05-09_03-05-09_03-05-09_03-05-09_03-05-09 1.1.1 3.002246614136 13.763108073792006
asn_14-03-09_14-03-09_14-03-09_14-03-09_29-03-09_29-03-09_04-05-09_04-05-09_04-05-09_04-05-09_04-05-09_04-05-09_04-05-09_04-05-09 1.1.1 2.7924231869379996 12.589380113240006
asn_14-03-12_14-03-12_14-03-12_14-03-12_29-03-12_29-03-12_10-12-12_10-12-12_10-12-12_10-12-12_10-12-12_10-12-12_10-12-12_10-12-12 1.1.1 2.0950874482049997 8.226440322704999
asn_14-03-12_14-03-12_14-03-12_14-03-12_30-03-12_30-03-12_09-12-12_09-12-12_09-12-12_09-12-12_09-12-12_09-12-12_09-12-12_09-12-12 1.1.1 1.5698390495399996 3.7796374125
asn_14-05-09_14-05-09_14-05-09_14-05-09_29-05-09_29-05-09_01-03-09_01-03-09_01-03-09_01-03-09_01-03-09_01-03-09_01-03-09_01-03-09 1.1.1 2.4841405447539997 10.215069642988
asn_14-05-09_14-05-09_14-05-09_14-05-09_29-05-09_29-05-09_02-03-09_02-03-09_02-03-09_02-03-09_02-03-09_02-03-09_02-03-09_02-03-09 1.1.1 2.1150971434179997 8.892600233986
asn_15-01-01_15-01-01_15-01-01_15-01-01_30-01-01_30-01-01_10-08-01_10-08-01_10-08-01_10-08-01_10-08-01_10-08-01_10-08-01_10-08-01 1.1.1 1.959661781144 9.081626901324
asn_15-02-04_15-02-04_15-02-04_15-02-04_30-02-04_30-02-04_02-03-04_02-03-04_02-03-04_02-03-04_02-03-04_02-03-04_02-03-04_02-03-04 1.1.1 1.37036387148 5.972357986715998
asn_15-02-04_15-02-04_15-02-04_15-02-04_30-02-04_30-02-04_04-03-04_04-03-04_04-03-04_04-03-04_04-03-04_04-03-04_04-03-04_04-03-04 1.1.1 2.1036237304600003 9.146343849916
asn_15-02-06_15-02-06_15-02-06_15-02-06_29-02-06_29-02-06_04-02-06_04-02-06_04-02-06_04-02-06_04-02-06_04-02-06_04-02-06_04-02-06 1.1.1 3.2407400231079984 15.772192919829994
asn_15-02-06_15-02-06_15-02-06_15-02-06_29-02-06_29-02-06_05-02-06_05-02-06_05-02-06_05-02-06_05-02-06_05-02-06_05-02-06_05-02-06 1.1.1 4.582965221706001 23.281939383381005
asn_15-02-08_15-02-08_15-02-08_15-02-08_29-02-08_29-02-08_07-10-08_07-10-08_07-10-08_07-10-08_07-10-08_07-10-08_07-10-08_07-10-08 1.1.1 1.6981217965600002 7.591106208447998
asn_15-02-08_15-02-08_15-02-08_15-02-08_29-02-08_29-02-08_09-10-08_09-10-08_09-10-08_09-10-08_09-10-08_09-10-08_09-10-08_09-10-08 1.1.1 1.6770939164480003 6.871176827095998
asn_15-02-08_15-02-08_15-02-08_15-02-08_30-02-08_30-02-08_10-10-08_10-10-08_10-10-08_10-10-08_10-10-08_10-10-08_10-10-08_10-10-08 1.1.1 1.989638185584 9.050677499472002
asn_15-03-04_15-03-04_15-03-04_15-03-04_30-03-04_30-03-04_03-02-04_03-02-04_03-02-04_03-02-04_03-02-04_03-02-04_03-02-04_03-02-04 1.1.1 2.213442417824 10.258322362565
asn_15-03-09_15-03-09_15-03-09_15-03-09_30-03-09_30-03-09_04-05-09_04-05-09_04-05-09_04-05-09_04-05-09_04-05-09_04-05-09_04-05-09 1.1.1 2.8781579124200003 12.537188737453999
asn_15-03-12_15-03-12_15-03-12_15-03-12_29-03-12_29-03-12_07-12-12_07-12-12_07-12-12_07-12-12_07-12-12_07-12-12_07-12-12_07-12-12 1.1.1 1.914284846901 6.880140464483999
asn_15-03-12_15-03-12_15-03-12_15-03-12_29-03-12_29-03-12_09-12-12_09-12-12_09-12-12_09-12-12_09-12-12_09-12-12_09-12-12_09-12-12 1.1.1 1.880457361398 6.516452057115001
asn_15-03-12_15-03-12_15-03-12_15-03-12_29-03-12_29-03-12_10-12-12_10-12-12_10-12-12_10-12-12_10-12-12_10-12-12_10-12-12_10-12-12 1.1.1 2.469624772838 10.376889625102
asn_15-03-12_15-03-12_15-03-12_15-03-12_30-03-12_30-03-12_08-12-12_08-12-12_08-12-12_08-12-12_08-12-12_08-12-12_08-12-12_08-12-12 1.1.1 1.7943349937000002 6.057349306375
asn_15-04-05_15-04-05_15-04-05_15-04-05_29-04-05_29-04-05_03-02-05_03-02-05_03-02-05_03-02-05_03-02-05_03-02-05_03-02-05_03-02-05 1.1.1 3.4336809539999997 16.035081953304
asn_15-05-09_15-05-09_15-05-09_15-05-09_29-05-09_29-05-09_01-03-09_01-03-09_01-03-09_01-03-09_01-03-09_01-03-09_01-03-09_01-03-09 1.1.1 2.9182562270399997 12.78105494232
asn_16-01-01_16-01-01_16-01-01_16-01-01_30-01-01_30-01-01_06-08-01_06-08-01_06-08-01_06-08-01_06-08-01_06-08-01_06-08-01_06-08-01 1.1.1 1.0160925537139998 3.822153249278
asn_16-02-04_16-02-04_16-02-04_16-02-04_29-02-04_29-02-04_05-03-04_05-03-04_05-03-04_05-03-04_05-03-04_05-03-04_05-03-04_05-03-04 1.1.1 2.907530643726 13.754609645706001
asn_16-02-05_16-02-05_16-02-05_16-02-05_28-04-05_28-04-05_None_None_None_None_None_None_None_None 1.1.1 1.4597876607120002 3.847460215632002
asn_16-02-06_16-02-06_16-02-06_16-02-06_28-02-06_28-02-06_04-02-06_04-02-06_04-02-06_04-02-06_04-02-06_04-02-06_04-02-06_04-02-06 1.1.1 2.4860303049540002 11.449889351543998
asn_16-02-06_16-02-06_16-02-06_16-02-06_29-02-06_29-02-06_None_None_None_None_None_None_None_None 1.1.1 1.311565927224 4.4298808358279995
asn_16-02-08_16-02-08_16-02-08_16-02-08_29-02-08_29-02-08_07-10-08_07-10-08_07-10-08_07-10-08_07-10-08_07-10-08_07-10-08_07-10-08 1.1.1 1.3236240839360005 4.914192473498001
asn_16-02-08_16-02-08_16-02-08_16-02-08_30-02-08_30-02-08_08-10-08_08-10-08_08-10-08_08-10-08_08-10-08_08-10-08_08-10-08_08-10-08 1.1.1 1.196659384375 4.1717387153750005
asn_16-03-04_16-03-04_16-03-04_16-03-04_28-03-04_28-03-04_02-02-04_02-02-04_02-02-04_02-02-04_02-02-04_02-02-04_02-02-04_02-02-04 1.1.1 1.3387315864580005 5.242693904147001
asn_16-03-09_16-03-09_16-03-09_16-03-09_29-03-09_29-03-09_04-05-09_04-05-09_04-05-09_04-05-09_04-05-09_04-05-09_04-05-09_04-05-09 1.1.1 2.5979396042309997 11.462791477458
asn_16-03-12_16-03-12_16-03-12_16-03-12_29-03-12_29-03-12_08-12-12_08-12-12_08-12-12_08-12-12_08-12-12_08-12-12_08-12-12_08-12-12 1.1.1 1.7478838619879995 5.251949159484001
asn_16-03-12_16-03-12_16-03-12_16-03-12_29-03-12_29-03-12_10-12-12_10-12-12_10-12-12_10-12-12_10-12-12_10-12-12_10-12-12_10-12-12 1.1.1 1.93460639484 7.395076516492
asn_20-12-12_20-12-12_20-12-12_20-12-12_29-03-12_29-03-12_None_None_None_None_None_None_None_None 1.1.1 1.259382788352 3.6040750229159997
asn_32-01-01_32-01-01_32-01-01_32-01-01_29-01-01_29-01-01_09-08-01_09-08-01_09-08-01_09-08-01_09-08-01_09-08-01_09-08-01_09-08-01 1.1.1 1.4072899191699997 5.301376937401999
asn_32-01-01_32-01-01_32-01-01_32-01-01_29-01-01_29-01-01_10-08-01_10-08-01_10-08-01_10-08-01_10-08-01_10-08-01_10-08-01_10-08-01 1.1.1 1.9881349569900004 8.788786284096
asn_32-02-04_32-02-04_32-02-04_32-02-04_29-02-04_29-02-04_05-03-04_05-03-04_05-03-04_05-03-04_05-03-04_05-03-04_05-03-04_05-03-04 1.1.1 3.0611450489599985 14.284219793439993
asn_32-02-04_32-02-04_32-02-04_32-02-04_30-03-04_30-03-04_None_None_None_None_None_None_None_None 1.1.1 1.096914787411 2.806144358218999
asn_32-02-08_32-02-08_32-02-08_32-02-08_30-02-08_30-02-08_09-10-08_09-10-08_09-10-08_09-10-08_09-10-08_09-10-08_09-10-08_09-10-08 1.1.1 1.2757950068150001 3.903878906060001
asn_32-03-09_32-03-09_32-03-09_32-03-09_29-03-09_29-03-09_02-05-09_02-05-09_02-05-09_02-05-09_02-05-09_02-05-09_02-05-09_02-05-09 1.1.1 2.1299904832220005 8.470006636475999
asn_32-03-09_32-03-09_32-03-09_32-03-09_30-03-09_30-03-09_03-05-09_03-05-09_03-05-09_03-05-09_03-05-09_03-05-09_03-05-09_03-05-09 1.1.1 2.591359772694 10.612869697056
asn_32-03-12_32-03-12_32-03-12_32-03-12_29-03-12_29-03-12_10-12-12_10-12-12_10-12-12_10-12-12_10-12-12_10-12-12_10-12-12_10-12-12 1.1.1 2.1572697165999997 8.058012939533999
asn_32-03-12_32-03-12_32-03-12_32-03-12_30-03-12_30-03-12_09-12-12_09-12-12_09-12-12_09-12-12_09-12-12_09-12-12_09-12-12_09-12-12 1.1.1 1.5879253109719995 3.6179474230900013
asn_32-05-09_32-05-09_32-05-09_32-05-09_29-03-09_29-03-09_None_None_None_None_None_None_None_None 1.1.1 1.720445694576 4.8245922634
asn_33-11-02_33-11-02_33-11-02_33-11-02_29-01-02_29-01-02_None_None_None_None_None_None_None_None 1.1.2 1.337052625242 1.8316957651260004
ast_28-01-01_29-01-01_06-08-01_07-08-01 1.1.1 1.1701540175040002 4.630347825724
ast_28-01-01_29-01-01_07-08-01_06-08-01 1.1.1 1.191887312979 4.573918665679
ast_28-01-01_29-01-01_09-08-01_08-08-01 1.1.1 1.252028556666 4.4474167956600015
ast_28-01-01_30-01-01_06-08-01_08-08-01 1.1.1 1.1439042972299998 4.313897614186001
ast_28-01-01_30-01-01_06-08-01_09-08-01 1.1.1 1.106230389407 3.8792616007079994
ast_28-01-01_30-01-01_07-08-01_09-08-01 1.1.1 1.078251931496 3.737980595474
ast_28-02-04_28-02-04_01-03-04_02-03-04 1.1.1 1.3302960749999997 5.029504568
ast_28-02-04_29-02-04_04-03-04_04-03-04 1.1.1 1.781918746405 7.170841914424999
ast_28-02-04_29-02-04_05-03-04_05-03-04 1.1.1 2.5869072014470005 11.725646500503998
ast_28-02-06_28-02-06_01-02-06_02-02-06 1.1.1 1.8218956258099996 7.636133699675001
ast_28-02-06_29-02-06_03-02-06_04-02-06 1.1.1 2.305577211237 10.500434580216002
ast_28-02-06_29-02-06_04-02-06_03-02-06 1.1.1 2.270151869291 10.426604550161999
ast_28-02-08_29-02-08_06-10-08_07-10-08 1.1.1 1.2623819224200001 4.535308338610001
ast_28-02-08_29-02-08_07-10-08_06-10-08 1.1.1 1.274083896972 4.537336879281
ast_28-02-08_29-02-08_08-10-08_09-10-08 1.1.1 1.3215119551919998 4.57574798005
ast_28-02-08_30-02-08_06-10-08_08-10-08 1.1.1 1.225373030043 4.293301397013
ast_28-02-08_30-02-08_06-10-08_09-10-08 1.1.1 1.1944735912500002 3.8146708610159994
ast_28-02-08_30-02-08_07-10-08_09-10-08 1.1.1 1.203073770288 3.631517422880001
ast_28-03-09_28-03-09_02-05-09_01-05-09 1.1.1 1.8521665198459996 7.072400706018
ast_28-03-09_29-03-09_03-05-09_03-05-09 1.1.1 2.4865552138900004 10.855143707365
ast_28-03-12_29-03-12_06-12-12_07-12-12 1.1.1 1.6178345919000003 3.971402587980001
ast_28-03-12_29-03-12_08-12-12_09-12-12 1.1.1 1.665400629 4.294035462
ast_28-03-12_29-03-12_09-12-12_08-12-12 1.1.1 1.708288830325 4.1085595474000005
ast_28-03-12_29-03-12_10-12-12_10-12-12 1.1.1 1.9412263907460001 6.320983297875999
ast_28-03-12_30-03-12_06-12-12_09-12-12 1.1.1 1.5745815338190001 3.5215548058540005
ast_28-03-12_30-03-12_07-12-12_08-12-12 1.1.1 1.554474432572 3.6932147909289994
ast_28-03-12_30-03-12_07-12-12_09-12-12 1.1.1 1.586932703928 3.3447286547999995
ast_28-05-09_29-05-09_02-03-09_02-03-09 1.1.1 1.78536752849 6.733666384925
ast_29-01-01_28-01-01_06-08-01_06-08-01 1.1.1 1.3069376566309998 4.956034009619
ast_29-01-01_28-01-01_06-08-01_07-08-01 1.1.1 1.27217217834 4.816000562688
ast_29-01-01_28-01-01_08-08-01_09-08-01 1.1.1 1.3410845835379996 4.822381046378
ast_29-01-01_29-01-01_07-08-01_06-08-01 1.1.1 1.2647102954879998 4.790436690176
ast_29-01-01_29-01-01_09-08-01_08-08-01 1.1.1 1.3321396885560004 4.6574154726120005
ast_29-02-04_28-02-04_05-03-04_05-03-04 1.1.1 2.6497696990730004 11.935395198033998
ast_29-02-05_29-02-05_01-04-05_01-04-05 1.1.1 2.2415820621659996 7.970069554367999
ast_29-02-05_29-02-05_03-04-05_04-04-05 1.1.1 2.597102920776 10.190606947248
ast_29-02-06_28-02-06_02-02-06_01-02-06 1.1.1 1.807390482976 7.785044328048001
ast_29-02-06_28-02-06_03-02-06_04-02-06 1.1.1 2.4122592238650005 10.876134108859999
ast_29-02-06_28-02-06_04-02-06_04-02-06 1.1.1 2.3011829211520003 10.233088494783999
ast_29-02-06_28-02-06_05-02-06_05-02-06 1.1.1 3.319162141973 15.673745158727
ast_29-02-06_29-02-06_03-02-06_03-02-06 1.1.1 2.5549322135400008 11.570167904399998
ast_29-02-06_29-02-06_04-02-06_03-02-06 1.1.1 2.402253829422 10.848985669362
ast_29-02-08_28-02-08_06-10-08_07-10-08 1.1.1 1.2692307200209998 4.654719325916
ast_29-02-08_28-02-08_09-10-08_08-10-08 1.1.1 1.350622824516 4.591777273629
ast_29-03-09_28-03-09_02-05-09_02-05-09 1.1.1 1.8547210035850001 6.836874837105
ast_29-03-09_28-03-09_04-05-09_04-05-09 1.1.1 2.3892317472319995 9.973439617216
ast_29-03-09_29-03-09_01-05-09_02-05-09 1.1.1 2.002800753646 7.753407706352001
ast_29-03-12_28-03-12_07-12-12_06-12-12 1.1.1 1.5862263820199995 4.1301922389209995
ast_29-03-12_28-03-12_08-12-12_08-12-12 1.1.1 1.646451146304 4.827999255104
ast_29-03-12_29-03-12_08-12-12_09-12-12 1.1.1 1.667979125783 4.488367782611
ast_29-05-09_29-05-09_04-03-09_03-03-09 1.1.1 2.52278484344 10.459925398240003
ast_30-01-01_28-01-01_08-08-01_07-08-01 1.1.1 0.9392298483149999 3.0006859211999997
ast_30-01-01_28-01-01_09-08-01_06-08-01 1.1.1 0.9960342908120002 2.6973230307099993
ast_30-01-01_28-01-01_10-08-01_08-08-01 1.1.1 1.1205806494230002 4.1139754128989985
ast_30-01-01_28-01-01_10-08-01_09-08-01 1.1.1 1.080344748627 3.673861660402
ast_30-02-08_28-02-08_08-10-08_06-10-08 1.1.1 1.090684734669 3.0580166865060003
ast_30-02-08_28-02-08_08-10-08_07-10-08 1.1.1 1.048841153715 2.992718805573
ast_30-02-08_28-02-08_09-10-08_06-10-08 1.1.1 1.118820968535 2.56083520726
ast_30-02-08_28-02-08_10-10-08_09-10-08 1.1.1 1.136578117836 3.586892016947
ast_30-03-12_28-03-12_08-12-12_07-12-12 1.1.1 1.4966485787759998 2.7464574636599988
ast_30-03-12_28-03-12_09-12-12_07-12-12 1.1.1 1.532590035366 2.3938071155500005
ast_30-03-12_30-03-12_09-12-12_08-12-12 1.1.1 1.599528978264 2.362193723036
ast_30-04-05_30-04-05_02-02-05_01-02-05 1.1.1 1.7754854143680003 4.081350529632
ast_30-04-05_30-04-05_03-02-05_04-02-05 1.1.1 2.178502316251 6.483535384606
asv_31-02-05_29-02-05_05-04-05_05-04-05_05-04-05 1.1.1 3.26439007125 15.069447991250005
asv_31-02-06_28-02-06_01-02-06_01-02-06_02-02-06 1.1.1 1.789165964502 7.687407859967999
asv_31-02-06_29-02-06_03-02-06_04-02-06_03-02-06 1.1.1 2.466662113214 10.862519774850002
asv_31-02-06_29-02-06_03-02-06_04-02-06_04-02-06 1.1.1 2.3387328310080004 10.533089968224
asv_31-02-06_29-02-06_04-02-06_04-02-06_03-02-06 1.1.1 2.3915319695519996 10.610135983728
asv_31-03-04_29-03-04_03-02-04_03-02-04_03-02-04 1.1.1 1.9364590934040005 8.201394758532
asv_31-03-12_28-03-12_09-12-12_09-12-12_09-12-12 1.1.2 1.5777600329280002 2.7595428791039995
atn_28-02-08_07-10-08_06-10-08_06-10-08 1.1.1 1.190755138496 4.17537516096
atn_29-01-01_07-08-01_06-08-01_07-08-01 1.1.1 1.173538195143 4.3942385679989995
atn_29-03-12_06-12-12_07-12-12_06-12-12 1.1.1 1.5528928761500005 3.9576584157880004
atn_29-03-12_08-12-12_09-12-12_09-12-12 1.1.1 1.5978903789099996 3.823257976382002
ato_28-03-09_01-05-09_01-05-09_01-05-09_01-05-09 1.1.1 1.87439093653 6.967244623210001
aww_30-02-06_30-02-06_01-02-06_01-02-06_01-02-06_01-02-06_01-02-06 1.1.1 1.3850131825919996 5.017343428284001
baa_30-05-09_30-05-09_04-03-09_03-03-09 1.1.1 1.80205398072 4.814058491352
baa_31-03-12_28-03-12_06-12-12_06-12-12 1.1.1 1.464827923132 3.2479999085860003
baa_31-03-12_29-03-12_07-12-12_07-12-12 1.1.1 1.5215824603010004 3.1187841966680003
baa_31-03-12_29-03-12_09-12-12_08-12-12 1.1.1 1.6252234354180002 3.256927602302
bab_30-01-01_30-01-01_06-08-01_06-08-01_06-08-01_06-08-01 1.1.1 0.8832759970979999 2.8171337511900005
bab_30-02-05_30-02-05_05-04-05_05-04-05_05-04-05_05-04-05 1.1.1 2.462765517792 9.16501982488
bab_30-02-08_30-02-08_06-10-08_06-10-08_06-10-08_06-10-08 1.1.1 0.993590779693 2.5372492728319997
bac_29-02-06_29-02-06_03-02-06_04-02-06_04-02-06_04-02-06 1.1.1 2.09272402449 8.899584272568001
bae_30-02-06_30-02-06_04-02-06_04-02-06_04-02-06_04-02-06_04-02-06 1.1.1 1.114728478946 2.3618779102200005
bag_30-02-06_30-02-06_01-02-06_01-02-06_01-02-06_01-02-06_01-02-06_01-02-06 1.1.1 2.9600772419499997 14.164617440425
bah_30-01-01_30-01-01_06-08-01_06-08-01_06-08-01_06-08-01_06-08-01_06-08-01_06-08-01 1.1.1 1.4469334043220003 5.984602365987
bah_30-02-08_30-02-08_06-10-08_06-10-08_06-10-08_06-10-08_06-10-08_06-10-08_06-10-08 1.1.1 1.600724916228 5.7067202172360005
bai_28-04-05_28-04-05_02-02-05_02-02-05_02-02-05 1.1.1 2.627764961975 10.394560712108001
bai_28-04-05_29-04-05_01-02-05_01-02-05_01-02-05 1.1.1 3.1836724128599996 13.2355781079
bai_28-04-05_29-04-05_04-02-05_04-02-05_04-02-05 1.1.1 3.7577079846900006 16.853246048331002
bai_28-05-09_28-05-09_01-03-09_01-03-09_01-03-09 1.1.1 2.9277195798120004 12.579303853431004
bai_28-05-09_29-05-09_02-03-09_02-03-09_02-03-09 1.1.1 2.534702183216 10.938482131682001
bai_30-02-04_30-02-04_05-03-04_05-03-04_05-03-04 1.1.1 2.5936444879379996 11.547807665634
bai_30-02-06_30-02-06_03-02-06_04-02-06_03-02-06 1.1.1 2.7316225944220003 12.55693226399
bai_30-02-06_30-02-06_03-02-06_04-02-06_04-02-06 1.1.1 2.5521735175859996 11.39551692405
baj_29-02-08_29-02-08_06-10-08_06-10-08_06-10-08_06-10-08_06-10-08 1.1.1 2.207524550355 9.852126079904998
baj_30-01-01_30-01-01_06-08-01_06-08-01_06-08-01_06-08-01_06-08-01 1.1.1 1.212044114232 4.611518769563999
baj_30-02-08_30-02-08_06-10-08_06-10-08_06-10-08_06-10-08_06-10-08 1.1.1 1.3308789231640004 4.468371008724
bal_29-02-05_31-02-05_04-04-05_04-04-05_04-04-05_04-04-05 1.1.1 2.2535097762930003 8.071054783626
bal_29-02-06_29-02-06_03-02-06_03-02-06_04-02-06_03-02-06 1.1.1 1.573241344449 5.643423374994001
bal_29-03-09_31-03-09_01-05-09_01-05-09_01-05-09_01-05-09 1.1.1 2.0122416467799997 6.912544870209
bal_29-03-09_31-03-09_02-05-09_02-05-09_02-05-09_02-05-09 1.1.1 1.5912884410360002 5.633271972447998
bam_28-02-04_28-02-04_05-03-04_05-03-04_05-03-04_05-03-04_05-03-04_05-03-04_05-03-04 1.1.1 3.6587816184599995 17.784933796689998
bam_28-02-06_28-02-06_03-02-06_03-02-06_03-02-06_03-02-06_03-02-06_03-02-06_03-02-06 1.1.1 3.4073349994710003 16.45795822668
bam_28-03-12_28-03-12_06-12-12_06-12-12_06-12-12_06-12-12_06-12-12_06-12-12_06-12-12 1.1.1 1.899910423334 5.8429729334900005
bam_28-04-05_28-04-05_04-02-05_04-02-05_04-02-05_04-02-05_04-02-05_04-02-05_04-02-05 1.1.1 3.246196521568 13.893704396572002
bam_28-05-09_28-05-09_03-03-09_03-03-09_03-03-09_03-03-09_03-03-09_03-03-09_03-03-09 1.1.1 3.531807744912 15.973841315663998
bam_29-01-01_29-01-01_09-08-01_09-08-01_09-08-01_09-08-01_09-08-01_09-08-01_09-08-01 1.1.1 1.6272864816479995 6.327224783037997
bam_29-02-04_29-02-04_05-03-04_05-03-04_05-03-04_05-03-04_05-03-04_05-03-04_05-03-04 1.1.1 3.8233376552820015 18.630491699374
bam_29-02-05_29-02-05_01-04-05_01-04-05_01-04-05_01-04-05_01-04-05_01-04-05_01-04-05 1.1.1 2.91964593636 11.618387668199999
bam_29-02-08_29-02-08_10-10-08_10-10-08_10-10-08_10-10-08_10-10-08_10-10-08_10-10-08 1.1.1 2.353694249823 10.831999842867
bam_29-03-09_29-03-09_01-05-09_01-05-09_01-05-09_01-05-09_01-05-09_01-05-09_01-05-09 1.1.1 2.748630123229 12.190457974564
bam_29-04-05_29-04-05_02-02-05_02-02-05_02-02-05_02-02-05_02-02-05_02-02-05_02-02-05 1.1.1 2.5012783925849997 10.149307879655
bam_29-05-09_29-05-09_04-03-09_04-03-09_04-03-09_04-03-09_04-03-09_04-03-09_04-03-09 1.1.1 3.344689471054 14.997016171069006
bam_30-01-01_30-01-01_10-08-01_10-08-01_10-08-01_10-08-01_10-08-01_10-08-01_10-08-01 1.1.1 1.4398424598449997 6.101032789341001
bam_30-02-08_30-02-08_10-10-08_10-10-08_10-10-08_10-10-08_10-10-08_10-10-08_10-10-08 1.1.1 1.5037309372320002 5.875213591368
bam_30-04-05_30-04-05_02-02-05_02-02-05_02-02-05_02-02-05_02-02-05_02-02-05_02-02-05 1.1.1 2.035645116085 5.723211980280001
bam_30-04-05_30-04-05_03-02-05_03-02-05_03-02-05_03-02-05_03-02-05_03-02-05_03-02-05 1.1.1 2.8355726195999993 10.4055284291
ban_28-02-06_28-02-06_05-02-06_05-02-06_05-02-06_05-02-06_05-02-06_05-02-06 1.1.1 3.8715209742 19.172735113476
ban_29-01-01_29-01-01_07-08-01_07-08-01_07-08-01_07-08-01_07-08-01_07-08-01 1.1.1 1.5486510369090003 6.108751895483001
ban_29-01-01_29-01-01_10-08-01_10-08-01_10-08-01_10-08-01_10-08-01_10-08-01 1.1.1 2.20190407808 9.936807294400001
ban_29-02-08_29-02-08_07-10-08_07-10-08_07-10-08_07-10-08_07-10-08_07-10-08 1.1.1 1.5556208195160002 5.98793192748
ban_29-03-12_29-03-12_06-12-12_06-12-12_06-12-12_06-12-12_06-12-12_06-12-12 1.1.1 1.874621007427 5.739088439741996
ban_29-03-12_29-03-12_09-12-12_09-12-12_09-12-12_09-12-12_09-12-12_09-12-12 1.1.1 1.853556066208 5.334547533084001
ban_29-03-12_29-03-12_10-12-12_10-12-12_10-12-12_10-12-12_10-12-12_10-12-12 1.1.1 2.3568263964049994 8.846675915971002
ban_30-01-01_30-01-01_06-08-01_06-08-01_06-08-01_06-08-01_06-08-01_06-08-01 1.1.1 0.9286392320479999 3.1810391577679997
ban_30-02-06_30-02-06_04-02-06_04-02-06_04-02-06_04-02-06_04-02-06_04-02-06 1.1.1 1.9783857242380003 8.560346919852003
ban_30-02-08_30-02-08_07-10-08_07-10-08_07-10-08_07-10-08_07-10-08_07-10-08 1.1.1 1.000610044272 2.7776142021280004
bao_28-02-06_29-02-06_03-02-06_03-02-06_04-02-06 1.1.1 2.2239948692280005 9.847488324404
bao_28-02-06_29-02-06_03-02-06_04-02-06_04-02-06 1.1.1 2.11123526319 9.17369231112
bao_29-01-01_29-01-01_06-08-01_06-08-01_07-08-01 1.1.1 1.2367268770060005 4.504257984936
bao_29-01-01_29-01-01_06-08-01_07-08-01_07-08-01 1.1.1 1.2671485270999998 4.31257627931
bao_29-01-01_29-01-01_07-08-01_06-08-01_06-08-01 1.1.1 1.2654390178559998 4.5142103425440006
bao_29-01-01_29-01-01_07-08-01_07-08-01_06-08-01 1.1.1 1.2399747176689997 4.339188072683
bao_29-01-01_29-01-01_08-08-01_08-08-01_09-08-01 1.1.1 1.3292349573479998 4.6450870126920005
bao_29-01-01_29-01-01_08-08-01_09-08-01_09-08-01 1.1.1 1.2611954095300002 4.090265400116001
bao_29-01-01_29-01-01_09-08-01_08-08-01_08-08-01 1.1.1 1.3700578968959995 4.860237032975999
bao_29-01-01_29-01-01_09-08-01_09-08-01_08-08-01 1.1.1 1.259879560632 4.1797355693939995
bao_29-02-06_28-02-06_04-02-06_03-02-06_03-02-06 1.1.1 2.127735449895 9.510918845729
bao_29-02-06_28-02-06_04-02-06_04-02-06_03-02-06 1.1.1 2.0764909886800003 8.76167191892
bao_29-02-06_29-02-06_04-02-06_03-02-06_03-02-06 1.1.1 2.3740400762880003 10.67042915148
bao_29-02-08_29-02-08_06-10-08_06-10-08_06-10-08 1.1.1 1.2810301025700002 4.484376135230002
bao_29-02-08_29-02-08_06-10-08_06-10-08_07-10-08 1.1.1 1.236611026274 4.4325668621
bao_29-02-08_29-02-08_06-10-08_07-10-08_07-10-08 1.1.1 1.2214091780800005 4.163374844720002
bao_29-02-08_29-02-08_07-10-08_06-10-08_06-10-08 1.1.1 1.3449337290399999 4.274749591051
bao_29-02-08_29-02-08_07-10-08_07-10-08_06-10-08 1.1.1 1.22098147836 4.1978506065520005
bao_29-02-08_29-02-08_08-10-08_08-10-08_09-10-08 1.1.1 1.3512367134019998 4.465406974603999
bao_29-02-08_29-02-08_08-10-08_09-10-08_09-10-08 1.1.1 1.286674579876 3.9837774474520007
bao_29-02-08_29-02-08_09-10-08_08-10-08_08-10-08 1.1.1 1.367171092392 4.6768780408
bao_29-02-08_29-02-08_09-10-08_09-10-08_08-10-08 1.1.1 1.306362477744 4.2226720322719995
bao_29-02-08_29-02-08_09-10-08_09-10-08_09-10-08 1.1.1 1.2573574354200001 3.887107135458
bao_29-03-12_29-03-12_06-12-12_06-12-12_07-12-12 1.1.1 1.6062883242429995 3.889043949168
bao_29-03-12_29-03-12_06-12-12_07-12-12_07-12-12 1.1.1 1.5001859120810002 3.852161853125
bao_29-03-12_29-03-12_07-12-12_06-12-12_06-12-12 1.1.1 1.541075873003 4.0112338980620015
bao_29-03-12_29-03-12_07-12-12_07-12-12_06-12-12 1.1.1 1.4962284468179998 3.852444505508
bao_29-03-12_29-03-12_08-12-12_08-12-12_09-12-12 1.1.1 1.6751178148619996 4.3266908839779985
bao_29-03-12_29-03-12_08-12-12_09-12-12_09-12-12 1.1.1 1.576386576216 3.872015010936
bao_29-03-12_29-03-12_09-12-12_08-12-12_08-12-12 1.1.1 1.5841666356500002 4.27550481225
bao_29-03-12_29-03-12_09-12-12_09-12-12_08-12-12 1.1.1 1.5513085451609996 3.9224352048460003
bao_30-01-01_30-01-01_09-08-01_08-08-01_08-08-01 1.1.1 0.966328453862 2.5501103323980003
bao_30-02-06_30-02-06_02-02-06_01-02-06_01-02-06 1.1.1 1.283521836272 4.499122684784001
bao_30-02-08_30-02-08_07-10-08_06-10-08_06-10-08 1.1.2 0.910712166954 2.299355507376
bao_30-02-08_30-02-08_09-10-08_08-10-08_08-10-08 1.1.1 1.062365753524 2.575263580532
bao_30-02-08_30-02-08_09-10-08_09-10-08_08-10-08 1.1.1 1.15717308616 2.28857916028
bao_30-03-12_30-03-12_06-12-12_06-12-12_06-12-12 1.1.2 1.5433474377150005 2.0866414201245003
bap_29-05-09_29-05-09_02-03-09_02-03-09_02-03-09_02-03-09_02-03-09 1.1.1 2.138861429133 8.333719729530001
bap_30-03-12_30-03-12_08-12-12_08-12-12_08-12-12_08-12-12_08-12-12 1.1.1 1.7202524839080002 3.101632230083
baq_30-02-06_30-02-06_01-02-06_01-02-06_01-02-06_01-02-06 1.1.1 2.5494563540759994 11.675644468429999
baq_30-02-06_30-02-06_01-02-06_01-02-06_02-02-06_02-02-06 1.1.1 2.4173255376159997 10.879712102843998
baq_30-02-06_30-02-06_03-02-06_03-02-06_04-02-06_04-02-06 1.1.1 3.4386176970020004 16.630092176012003
baq_30-02-06_30-02-06_04-02-06_03-02-06_04-02-06_04-02-06 1.1.1 3.3256620101250003 16.078219543386
baq_30-04-05_30-04-05_02-02-05_02-02-05_02-02-05_02-02-05 1.1.1 2.7982401867839997 9.068662293984
baq_30-04-05_30-04-05_03-02-05_03-02-05_03-02-05_03-02-05 1.1.1 3.93030245475 16.30381593995
baq_30-04-05_30-04-05_04-02-05_04-02-05_04-02-05_04-02-05 1.1.1 3.69318071782 14.516173676378006
baq_31-02-04_29-02-04_04-03-04_04-03-04_04-03-04_04-03-04 1.1.1 4.031794661856 19.88831640336
baq_31-03-09_29-03-09_01-05-09_01-05-09_01-05-09_01-05-09 1.1.1 4.583662662561 22.479067946405006
baq_31-03-12_29-03-12_06-12-12_06-12-12_06-12-12_06-12-12 1.1.1 2.9076406893419993 11.118863028915
baq_31-03-12_29-03-12_07-12-12_07-12-12_07-12-12_07-12-12 1.1.1 2.7244291409500003 10.330739733049999
baq_31-04-05_28-04-05_01-02-05_01-02-05_01-02-05_01-02-05 1.1.1 4.425473419164 20.671944303588003
baq_31-04-05_28-04-05_02-02-05_02-02-05_02-02-05_02-02-05 1.1.1 3.818527156345 17.45951853683499
baq_31-04-05_29-04-05_02-02-05_02-02-05_02-02-05_02-02-05 1.1.1 4.008463770141 18.463310610639997
bas_28-01-01_28-01-01_07-08-01_07-08-01_07-08-01_07-08-01 1.1.1 1.5015010238800002 6.070640904301999
bas_28-02-05_28-02-05_01-04-05_01-04-05_01-04-05_01-04-05 1.1.1 2.619422432182 10.288494793107999
bas_28-02-06_28-02-06_01-02-06_01-02-06_01-02-06_02-02-06 1.1.1 2.3256039328559996 10.563195618852001
bas_28-02-06_28-02-06_03-02-06_04-02-06_04-02-06_03-02-06 1.1.1 2.952766765658001 14.339940081915
bas_28-02-06_28-02-06_04-02-06_04-02-06_03-02-06_03-02-06 1.1.1 3.117618253827 14.617307693267994
bas_29-02-06_29-02-06_02-02-06_01-02-06_02-02-06_02-02-06 1.1.1 2.3231433708 10.41475213125
bas_29-02-06_29-02-06_03-02-06_03-02-06_03-02-06_03-02-06 1.1.1 3.5148145998000007 16.9527772554
bas_29-02-06_29-02-06_03-02-06_03-02-06_03-02-06_04-02-06 1.1.1 3.4180848285399996 16.376059116350003
bas_29-02-06_29-02-06_03-02-06_03-02-06_04-02-06_03-02-06 1.1.1 3.3700488507140007 16.052768547697
bas_29-02-06_29-02-06_03-02-06_03-02-06_04-02-06_04-02-06 1.1.1 3.3613286585040005 16.015633632054
bas_29-02-06_29-02-06_03-02-06_04-02-06_04-02-06_04-02-06 1.1.1 3.206362797693002 15.174481813425
bas_29-02-06_29-02-06_04-02-06_04-02-06_03-02-06_04-02-06 1.1.1 3.1100009805839988 14.741610608297998
bas_29-05-09_29-05-09_04-03-09_04-03-09_04-03-09_04-03-09 1.1.1 3.2278462308809996 14.501223742452
bas_30-02-06_30-02-06_03-02-06_03-02-06_03-02-06_04-02-06 1.1.1 2.2677326872199997 10.563231764481
bas_30-03-09_30-03-09_05-05-09_05-05-09_05-05-09_05-05-09 1.1.1 3.509521818387 15.444135551484
bat_28-01-01_28-01-01_07-08-01_07-08-01_07-08-01_07-08-01_07-08-01 1.1.1 1.7060504309020001 7.469766870776
bat_28-01-01_28-01-01_09-08-01_09-08-01_09-08-01_09-08-01_09-08-01 1.1.1 1.7482385490440004 7.090684151615998
bat_28-01-01_28-01-01_10-08-01_10-08-01_10-08-01_10-08-01_10-08-01 1.1.1 2.630741279697 12.601243253928
bat_28-02-05_28-02-05_03-04-05_03-04-05_03-04-05_03-04-05_03-04-05 1.1.1 4.010222444976 18.142770770783997
bat_28-02-05_28-02-05_05-04-05_05-04-05_05-04-05_05-04-05_05-04-05 1.1.1 4.6022315536919995 22.084567625924006
bat_28-02-06_28-02-06_04-02-06_04-02-06_04-02-06_04-02-06_04-02-06 1.1.1 3.469741223339999 17.101537292103007
bat_28-02-08_28-02-08_07-10-08_07-10-08_07-10-08_07-10-08_07-10-08 1.1.1 1.803142317744 7.3293303739199995
bat_28-03-09_28-03-09_01-05-09_01-05-09_01-05-09_01-05-09_01-05-09 1.1.1 3.1318476922630003 14.042548306695005
bat_28-03-09_28-03-09_02-05-09_02-05-09_02-05-09_02-05-09_02-05-09 1.1.1 2.6546870438999997 11.918079768036002
bat_28-03-12_28-03-12_09-12-12_09-12-12_09-12-12_09-12-12_09-12-12 1.1.1 2.167762434212 6.558221520792001
bat_28-05-09_28-05-09_04-03-09_04-03-09_04-03-09_04-03-09_04-03-09 1.1.1 3.6935660527109997 17.134479560367
bat_28-05-09_28-05-09_05-03-09_05-03-09_05-03-09_05-03-09_05-03-09 1.1.1 5.481172820664001 27.705954699702
bat_29-01-01_29-01-01_06-08-01_06-08-01_06-08-01_06-08-01_06-08-01 1.1.1 2.0655360995560006 8.961735690491999
bat_29-02-06_29-02-06_04-02-06_04-02-06_04-02-06_04-02-06_04-02-06 1.1.1 3.819899347203 18.594215560513
bat_29-02-08_29-02-08_06-10-08_06-10-08_06-10-08_06-10-08_06-10-08 1.1.1 2.043520495695 8.693071315020001
bat_29-03-09_29-03-09_02-05-09_02-05-09_02-05-09_02-05-09_02-05-09 1.1.1 2.832935144416 12.476979476260002
bat_29-03-12_29-03-12_06-12-12_06-12-12_06-12-12_06-12-12_06-12-12 1.1.1 2.2549402012680004 7.666084655586003
bat_29-03-12_29-03-12_09-12-12_09-12-12_09-12-12_09-12-12_09-12-12 1.1.1 2.178190175200001 7.059187359049998
bat_29-05-09_29-05-09_03-03-09_03-03-09_03-03-09_03-03-09_03-03-09 1.1.1 4.234880804004002 20.248530074508
bat_29-05-09_29-05-09_05-03-09_05-03-09_05-03-09_05-03-09_05-03-09 1.1.1 5.692411911309001 28.902374630309996
bat_30-02-06_30-02-06_05-02-06_05-02-06_05-02-06_05-02-06_05-02-06 1.1.1 3.932109869587999 19.75497856947
bat_30-02-08_30-02-08_07-10-08_07-10-08_07-10-08_07-10-08_07-10-08 1.1.1 1.159481277864 3.5432723808230002
bat_30-03-09_30-03-09_02-05-09_02-05-09_02-05-09_02-05-09_02-05-09 1.1.1 2.1718453122600003 6.7441045448639985
bat_30-03-09_30-03-09_03-05-09_03-05-09_03-05-09_03-05-09_03-05-09 1.1.1 3.1371250120500003 12.831700545375002
bat_30-03-09_30-03-09_05-05-09_05-05-09_05-05-09_05-05-09_05-05-09 1.1.1 4.234576313251998 19.805416851839997
bat_30-04-05_30-04-05_01-02-05_01-02-05_01-02-05_01-02-05_01-02-05 1.1.1 2.6095423922879997 8.359612966245
bat_30-04-05_30-04-05_04-02-05_04-02-05_04-02-05_04-02-05_04-02-05 1.1.1 2.932247080341 10.720988341731
baw_31-01-01_29-01-01_06-08-01_06-08-01_06-08-01_06-08-01_06-08-01 1.1.1 1.4664685710299998 6.021093422380003
baz-a_28-04-05_16-04-05_28-04-05_16-04-05_02-02-05_02-02-05_02-02-05_02-02-05_02-02-05_02-02-05_02-02-05_02-02-05 1.1.1 5.90607567915 29.45194975180001
baz-a_28-04-05_16-04-05_28-04-05_16-04-05_03-02-05_03-02-05_03-02-05_03-02-05_03-02-05_03-02-05_03-02-05_03-02-05 1.1.1 9.385667126604998 49.113468777799994
baz-a_28-04-05_16-04-05_28-04-05_16-04-05_04-02-05_04-02-05_04-02-05_04-02-05_04-02-05_04-02-05_04-02-05_04-02-05 1.1.1 8.483530009872 43.6463189292
baz_31-04-05_29-04-05_04-02-05_04-02-05_04-02-05 1.1.1 3.6634762506299983 15.942096988962
baz_31-04-05_29-04-05_05-02-05_05-02-05_05-02-05 1.1.1 5.265681640248001 25.820326996791007
bba_29-02-06_28-02-06_01-02-06_01-02-06_02-02-06 1.1.1 1.521892484519 6.0990041415660015
bba_29-02-06_28-02-06_04-02-06_03-02-06_03-02-06 1.1.1 2.0741280122009997 8.565966496991
bbf_31-01-01_29-01-01_07-08-01_06-08-01 1.1.1 0.9303431535359998 3.292542566811
bbf_31-02-04_29-02-04_01-03-04_01-03-04 1.1.1 1.3047959632899997 4.466742120549999
bbf_31-03-12_29-03-12_08-12-12_09-12-12 1.1.1 1.541230593903 3.18716016921
bbf_31-03-12_29-03-12_09-12-12_09-12-12 1.1.1 1.4514688861920002 2.8014837495839995
bbg_28-02-06_29-02-06_02-02-06_01-02-06_01-02-06 1.1.1 1.3182474434620004 4.874988548905
bbg_28-02-08_28-02-08_06-10-08_07-10-08_06-10-08 1.2.1 1.0371672667144998 3.2335214785805
bbg_28-03-12_28-03-12_07-12-12_07-12-12_06-12-12 1.2.1 1.4004406523449997 2.675578720006499
bbg_28-03-12_29-03-12_07-12-12_07-12-12_07-12-12 1.1.1 1.39661622724 2.7377785748689996
bbg_28-04-05_29-04-05_04-02-05_04-02-05_04-02-05 1.1.1 1.845639387143999 6.018173593025999
bbg_29-02-06_28-02-06_01-02-06_01-02-06_01-02-06 1.1.1 1.547978389926 5.636476695924001
bbg_29-02-08_29-02-08_09-10-08_08-10-08_08-10-08 1.1.1 1.1067678321950003 3.2868615908640004
bbg_30-03-12_30-03-12_06-12-12_07-12-12_07-12-12 2.2.1 1.5330790196085005 1.664732450199
bbh_29-02-06_28-02-06_04-02-06_04-02-06_03-02-06 1.1.1 1.848417413766 7.429806847903999
bbh_29-03-12_29-03-12_09-12-12_08-12-12_09-12-12 1.1.1 1.5579245277959997 3.308847756039
bbh_31-02-06_29-02-06_04-02-06_03-02-06_04-02-06 1.1.1 2.036441225412 8.486513301684
bbk_31-05-09_29-05-09_03-03-09_03-03-09_03-03-09_03-03-09_03-03-09 1.1.1 2.0564925412500004 7.412513115350001
bbm_28-01-01_29-01-01_10-08-01_10-08-01_10-08-01_10-08-01 1.1.1 1.511670890496 6.0122379362239995
bbn_31-01-01_29-01-01_09-08-01_09-08-01_09-08-01 1.1.1 1.4990427489239997 5.515779914315998
bbn_31-02-06_29-02-06_03-02-06_04-02-06_03-02-06 1.1.1 3.0760851543739998 14.407084434387
bbn_31-02-06_29-02-06_04-02-06_03-02-06_03-02-06 1.1.1 2.9215315505079995 13.612580739463999
bbn_31-03-12_29-03-12_08-12-12_08-12-12_08-12-12 1.1.1 2.1005764186 6.096220106185001
bbo_31-01-01_29-01-01_06-08-01_06-08-01_06-08-01_06-08-01 1.1.1 1.5989410931879997 6.872681961065997
bbo_31-01-01_29-01-01_07-08-01_07-08-01_07-08-01_07-08-01 1.1.1 1.5639976215919995 6.310433441550001
bbo_31-01-01_29-01-01_08-08-01_08-08-01_08-08-01_08-08-01 1.1.1 1.788268955543 7.250370107022
bbo_31-01-01_29-01-01_09-08-01_09-08-01_09-08-01_09-08-01 1.1.1 1.6271286992879999 5.904959948756001
bbo_31-01-01_29-01-01_10-08-01_10-08-01_10-08-01_10-08-01 1.1.1 2.163773454 10.08791828425
bbo_31-02-04_29-02-04_04-03-04_04-03-04_04-03-04_04-03-04 1.1.1 2.1925614128319997 9.424235335872002
bbo_31-02-04_29-02-04_05-03-04_05-03-04_05-03-04_05-03-04 1.1.1 3.4168949298960007 16.281427575966
bbo_31-02-06_29-02-06_01-02-06_01-02-06_01-02-06_01-02-06 1.1.1 2.260906188567 9.962843286785999
bbo_31-02-06_29-02-06_02-02-06_02-02-06_02-02-06_02-02-06 1.1.1 1.9591815661279992 8.662284024536001
bbo_31-02-06_29-02-06_03-02-06_03-02-06_03-02-06_03-02-06 1.1.1 2.9284485398539983 13.768372299568
bbo_31-02-06_29-02-06_04-02-06_04-02-06_04-02-06_04-02-06 1.1.1 2.9486084908 13.467904387839999
bbo_31-02-06_29-02-06_05-02-06_05-02-06_05-02-06_05-02-06 1.1.1 4.282275343522 21.54804092571
bbo_31-02-08_28-02-08_06-10-08_06-10-08_06-10-08_06-10-08 1.1.1 1.5692319296379995 6.138350287736001
bbo_31-02-08_29-02-08_07-10-08_07-10-08_07-10-08_07-10-08 1.1.1 1.6015847958000002 6.1201136077200005
bbo_31-02-08_29-02-08_08-10-08_08-10-08_08-10-08_08-10-08 1.1.1 1.7915299657319999 7.096656929034
bbo_31-02-08_29-02-08_09-10-08_09-10-08_09-10-08_09-10-08 1.1.1 1.6578369503129995 5.723118192219
bbo_31-03-09_29-03-09_01-05-09_01-05-09_01-05-09_01-05-09 1.1.1 2.64440099988 11.209760556954002
bbo_31-03-09_29-03-09_02-05-09_02-05-09_02-05-09_02-05-09 1.1.1 2.2693076319100003 9.435906130684998
bbo_31-03-09_29-03-09_03-05-09_03-05-09_03-05-09_03-05-09 1.1.1 3.3552984614279997 15.330129576054
bbo_31-03-09_29-03-09_04-05-09_04-05-09_04-05-09_04-05-09 1.1.1 3.1032631558920003 13.844069235839994
bbo_31-03-12_28-03-12_06-12-12_06-12-12_06-12-12_06-12-12 1.1.1 1.9355759969520003 5.607615314821
bbo_31-03-12_29-03-12_06-12-12_06-12-12_06-12-12_06-12-12 1.1.1 1.87321294563 5.893021337385001
bbo_31-03-12_29-03-12_08-12-12_08-12-12_08-12-12_08-12-12 1.1.1 2.0184451203400005 6.356614331685
bbo_31-03-12_29-03-12_09-12-12_09-12-12_09-12-12_09-12-12 1.1.1 1.8943280029599998 5.195813145591999
bbo_31-03-12_29-03-12_10-12-12_10-12-12_10-12-12_10-12-12 1.1.1 2.3227923681819997 9.044335354912
bbp_31-02-06_29-02-06_01-02-06_01-02-06_01-02-06 1.1.1 2.3445007053119995 10.705123647324
bbp_31-02-06_29-02-06_01-02-06_01-02-06_02-02-06 1.1.1 2.413433868839 10.313340850263
bbp_31-02-06_29-02-06_02-02-06_01-02-06_02-02-06 1.1.1 2.2440643552200004 9.717273233645999
bbp_31-02-06_29-02-06_03-02-06_03-02-06_03-02-06 1.1.1 3.2666646741759995 16.053491273191998
bbp_31-02-06_29-02-06_03-02-06_03-02-06_04-02-06 1.1.1 3.319060349376 15.869257295454002
bbp_31-02-06_29-02-06_03-02-06_04-02-06_04-02-06 1.1.1 3.2004505775190006 15.386177152775002
bbp_31-02-06_29-02-06_04-02-06_04-02-06_03-02-06 1.1.1 3.0920755968060005 14.446778193330006
bbp_31-02-06_29-02-06_04-02-06_04-02-06_04-02-06 1.1.1 3.0363134153799995 14.320496728021
bbp_31-02-08_29-02-08_09-10-08_09-10-08_09-10-08 1.1.1 1.709257028076 5.858892633672001
bbp_31-02-08_29-02-08_10-10-08_10-10-08_10-10-08 1.1.1 2.340659958524 10.028590693199998
bbp_31-03-09_29-03-09_03-05-09_03-05-09_03-05-09 1.1.1 3.2794201039860003 15.087647936603002
bbp_31-03-09_29-03-09_05-05-09_05-05-09_05-05-09 1.1.1 4.411644400787999 22.306560975472003
bbp_31-03-12_29-03-12_07-12-12_07-12-12_07-12-12 1.1.1 1.9517948301 5.6414705019400015
bbp_31-03-12_29-03-12_08-12-12_08-12-12_08-12-12 1.1.1 2.1419263506900004 6.655133327973998
bbp_31-03-12_29-03-12_09-12-12_09-12-12_09-12-12 1.1.1 1.958739000192 5.3833759031519985
bbq_31-01-01_28-01-01_07-08-01_07-08-01_07-08-01_07-08-01 1.1.1 1.5968067096539995 6.727616482977001
bbq_31-01-01_29-01-01_07-08-01_07-08-01_07-08-01_07-08-01 1.1.1 1.6766544749460002 6.992266652052001
bbq_31-01-01_29-01-01_08-08-01_08-08-01_08-08-01_08-08-01 1.1.1 1.884729291075 7.93402462237
bbq_31-01-01_29-01-01_09-08-01_09-08-01_09-08-01_09-08-01 1.1.1 1.6788895137400002 6.4741064535140005
bbq_31-01-01_29-01-01_10-08-01_10-08-01_10-08-01_10-08-01 1.1.1 2.483679878219 11.30440455371
bbq_31-02-05_28-02-05_04-04-05_04-04-05_04-04-05_04-04-05 1.1.1 2.2148484237620005 7.8732008341740025
bbq_31-02-06_29-02-06_01-02-06_01-02-06_01-02-06_01-02-06 1.1.1 2.59980999096 11.293936479043994
bbq_31-02-06_29-02-06_02-02-06_02-02-06_02-02-06_02-02-06 1.1.1 2.2374284025500004 10.31981760463
bbq_31-02-06_29-02-06_03-02-06_03-02-06_03-02-06_03-02-06 1.1.1 3.255331019591 15.647726553019002
bbq_31-02-06_29-02-06_05-02-06_05-02-06_05-02-06_05-02-06 1.1.1 4.733006911414 24.230173595937
bbq_31-02-08_28-02-08_08-10-08_08-10-08_08-10-08_08-10-08 1.1.1 1.855538443605 7.391586637155
bbq_31-02-08_29-02-08_06-10-08_06-10-08_06-10-08_06-10-08 1.1.1 1.7770674190059998 7.416966969424001
bbq_31-02-08_29-02-08_07-10-08_07-10-08_07-10-08_07-10-08 1.1.1 1.74528944784 6.7425181056
bbq_31-02-08_29-02-08_08-10-08_08-10-08_08-10-08_08-10-08 1.1.1 1.925248433032 7.795470761106
bbq_31-02-08_29-02-08_09-10-08_09-10-08_09-10-08_09-10-08 1.1.1 1.7624696377500004 6.4031934889799995
bbq_31-02-08_29-02-08_10-10-08_10-10-08_10-10-08_10-10-08 1.1.1 2.4112193750550004 10.932826300880997
bbq_31-03-09_29-03-09_01-05-09_01-05-09_01-05-09_01-05-09 1.1.1 2.9689211956899997 12.661988431781001
bbq_31-03-09_29-03-09_02-05-09_02-05-09_02-05-09_02-05-09 1.1.1 2.5526715028219997 10.622181229711998
bbq_31-03-12_29-03-12_06-12-12_06-12-12_06-12-12_06-12-12 1.1.1 2.0997706086780004 6.481786146737999
bbq_31-03-12_29-03-12_08-12-12_08-12-12_08-12-12_08-12-12 1.1.1 2.124244043425 7.1083652814999985
bbq_31-03-12_29-03-12_09-12-12_09-12-12_09-12-12_09-12-12 1.1.1 1.9900585022340005 5.9480006463700015
bbq_31-03-12_29-03-12_10-12-12_10-12-12_10-12-12_10-12-12 1.1.1 2.591237492472 10.254898752697002
bbq_31-05-09_29-05-09_03-03-09_03-03-09_03-03-09_03-03-09 1.1.1 3.7648911408639996 17.410429237400002
bbq_31-05-09_29-05-09_04-03-09_04-03-09_04-03-09_04-03-09 1.1.1 3.490107033186 15.656558004620994
bbr_31-02-06_28-02-06_01-02-06_01-02-06_02-02-06 1.1.1 1.6012511013450004 6.134976024165
bbr_31-03-12_29-03-12_08-12-12_08-12-12_08-12-12 1.1.1 1.7180039170399997 4.38810971585
bbs_29-02-04_31-02-04_02-03-04_02-03-04_02-03-04 1.1.1 1.2908566174760001 4.347850100866
bbs_29-02-06_31-02-06_02-02-06_02-02-06_01-02-06 1.1.1 1.655769966515 6.510491640014999
bbs_29-02-06_31-02-06_03-02-06_04-02-06_04-02-06 1.1.1 2.291222382048 9.243430248144
bbs_29-02-06_31-02-06_04-02-06_03-02-06_04-02-06 1.1.1 2.2597508936420003 9.367121628854001
bbs_29-03-09_31-03-09_04-05-09_04-05-09_04-05-09 1.1.1 2.3126203076599996 9.284405177907999
bbs_29-03-12_31-03-12_10-12-12_10-12-12_10-12-12 1.1.1 1.927475937618 6.0631197550769995
bbv_31-01-01_29-01-01_07-08-01_07-08-01_07-08-01 1.1.1 1.3209282333879997 4.922493952840001
bbv_31-02-04_29-02-04_05-03-04_05-03-04_05-03-04 1.1.1 2.820314633605 12.975581895195
bbv_31-02-06_29-02-06_03-02-06_03-02-06_03-02-06 1.1.1 2.6446086094999997 11.8570413775
bbv_31-02-06_29-02-06_04-02-06_03-02-06_03-02-06 1.1.1 2.602722543388 11.718679684239
bbv_31-03-12_29-03-12_06-12-12_06-12-12_06-12-12 1.1.1 1.656605554341 4.543102750965001
bbv_31-03-12_29-03-12_10-12-12_10-12-12_10-12-12 1.1.1 1.963757327188 7.038372179324
bbv_31-05-09_29-05-09_02-03-09_02-03-09_02-03-09 1.1.1 2.0471011988159997 7.514114444352001
bbw_29-01-01_31-01-01_07-08-01_07-08-01_07-08-01 1.1.1 1.6266658669299998 5.8515113950450015
bbw_29-02-04_31-02-04_04-03-04_04-03-04_04-03-04 1.1.1 2.3003353865999996 9.86184371915
bbw_29-02-04_31-02-04_05-03-04_05-03-04_05-03-04 1.1.1 3.47580875995 16.4291554283
bbw_29-02-06_31-02-06_02-02-06_01-02-06_01-02-06 1.1.1 2.4201173368020004 10.242970846296
bbw_29-02-06_31-02-06_04-02-06_03-02-06_03-02-06 1.1.1 2.9112780160710012 12.507924587202004
bbw_29-02-08_31-02-08_06-10-08_06-10-08_06-10-08 1.1.1 1.6907269226560002 6.269349450244999
bbw_29-02-08_31-02-08_10-10-08_10-10-08_10-10-08 1.1.1 2.1834550039750003 9.44031875085
bbw_29-05-09_31-05-09_03-03-09_03-03-09_03-03-09 1.1.1 3.3532029895260003 14.563474631541993
bbx_29-01-01_31-01-01_07-08-01_07-08-01_07-08-01 1.1.1 1.3669659468090003 4.898884869825
bbx_29-01-01_31-01-01_09-08-01_09-08-01_09-08-01 1.1.1 1.46097315396 4.655614654235
bbx_29-02-04_31-02-04_03-03-04_03-03-04_03-03-04 1.1.1 2.09757189213 8.868130149294
bbx_29-02-04_31-02-04_05-03-04_05-03-04_05-03-04 1.1.1 2.8451587795060003 12.970660497968
bbx_29-02-06_31-02-06_01-02-06_01-02-06_01-02-06 1.1.1 2.16472332405 9.02378789985
bbx_29-02-06_31-02-06_01-02-06_01-02-06_02-02-06 1.1.1 1.997485162084 8.061009386124
bbx_29-02-06_31-02-06_02-02-06_02-02-06_02-02-06 1.1.1 1.750210783155 7.208495259435001
bbx_29-02-06_31-02-06_03-02-06_03-02-06_04-02-06 1.1.1 2.7103360267379997 12.04064716493
bbx_29-02-06_31-02-06_03-02-06_04-02-06_04-02-06 1.1.1 2.4386743070440002 10.426957643025
bbx_29-02-06_31-02-06_04-02-06_03-02-06_04-02-06 1.1.1 2.5952840466 11.6787782097
bbx_29-02-06_31-02-06_04-02-06_04-02-06_04-02-06 1.1.1 2.4489719175 10.3543119252
bbx_29-03-09_31-03-09_05-05-09_05-05-09_05-05-09 1.1.1 3.6348831112200006 16.87568007496
bbx_29-03-12_31-03-12_09-12-12_09-12-12_09-12-12 1.1.1 1.6570915620350002 4.21288347571
bby_28-02-04_28-02-04_01-03-04_01-03-04_01-03-04_01-03-04_01-03-04_01-03-04 1.1.1 1.7672762114310006 7.522363748683
bby_28-02-04_28-02-04_02-03-04_02-03-04_02-03-04_02-03-04_02-03-04_02-03-04 1.1.1 1.4983415932030002 6.202293860210001
bby_28-03-09_28-03-09_01-05-09_01-05-09_01-05-09_01-05-09_01-05-09_01-05-09 1.1.1 2.55985264392 11.052417388580002
bby_29-01-01_29-01-01_06-08-01_06-08-01_06-08-01_06-08-01_06-08-01_06-08-01 1.1.1 1.6576276115000002 6.94115582615
bby_29-01-01_29-01-01_07-08-01_07-08-01_07-08-01_07-08-01_07-08-01_07-08-01 1.1.1 1.5352864336810002 6.3616494341179965
bby_29-01-01_29-01-01_08-08-01_08-08-01_08-08-01_08-08-01_08-08-01_08-08-01 1.1.1 1.7435438903500002 7.278138522815
bby_29-02-04_29-02-04_02-03-04_02-03-04_02-03-04_02-03-04_02-03-04_02-03-04 1.1.1 1.6564414666919995 6.5861741631480015
bby_29-02-04_29-02-04_04-03-04_04-03-04_04-03-04_04-03-04_04-03-04_04-03-04 1.1.1 2.3258237250779996 10.116771730029
bby_29-02-08_29-02-08_07-10-08_07-10-08_07-10-08_07-10-08_07-10-08_07-10-08 1.1.1 1.5973730250030005 6.177849041925
bby_29-02-08_29-02-08_09-10-08_09-10-08_09-10-08_09-10-08_09-10-08_09-10-08 1.1.1 1.6130637577119995 5.759915779802999
bby_29-03-09_29-03-09_01-05-09_01-05-09_01-05-09_01-05-09_01-05-09_01-05-09 1.1.1 2.703636441086 11.432592820076998
bby_29-03-09_29-03-09_05-05-09_05-05-09_05-05-09_05-05-09_05-05-09_05-05-09 1.1.1 4.476769561422 22.233918065113993
bby_29-03-12_29-03-12_06-12-12_06-12-12_06-12-12_06-12-12_06-12-12_06-12-12 1.1.1 1.9290501256049999 5.811249810525003
bby_29-03-12_29-03-12_07-12-12_07-12-12_07-12-12_07-12-12_07-12-12_07-12-12 1.1.1 1.8737441215400004 5.4467803257180005
bby_29-03-12_29-03-12_08-12-12_08-12-12_08-12-12_08-12-12_08-12-12_08-12-12 1.1.1 1.996447230176 6.4917570511279985
bby_29-03-12_29-03-12_09-12-12_09-12-12_09-12-12_09-12-12_09-12-12_09-12-12 1.1.1 1.8856478787180004 5.396830976424
bby_29-04-05_29-04-05_04-02-05_04-02-05_04-02-05_04-02-05_04-02-05_04-02-05 1.1.1 3.2119643424000013 13.79677829056
bby_29-05-09_29-05-09_02-03-09_02-03-09_02-03-09_02-03-09_02-03-09_02-03-09 1.1.1 2.3905576447350003 9.67213421793
bby_30-03-12_30-03-12_06-12-12_06-12-12_06-12-12_06-12-12_06-12-12_06-12-12 1.1.1 1.6831110768120003 2.7625621737779995
bby_30-05-09_30-05-09_04-03-09_04-03-09_04-03-09_04-03-09_04-03-09_04-03-09 1.1.1 2.237551857036 8.645274025895999
bbz_28-02-05_28-02-05_03-04-05_03-04-05_03-04-05_03-04-05_03-04-05 1.1.1 2.8681773107260002 12.134489593057001
bbz_28-02-08_28-02-08_10-10-08_10-10-08_10-10-08_10-10-08_10-10-08 1.1.1 1.9756301722080003 8.569902468960002
bbz_29-01-01_29-01-01_08-08-01_08-08-01_08-08-01_08-08-01_08-08-01 1.1.1 1.6376968913420002 6.551250453127
bbz_29-01-01_29-01-01_10-08-01_10-08-01_10-08-01_10-08-01_10-08-01 1.1.1 2.1652301319840004 9.231567222612
bbz_29-02-04_29-02-04_02-03-04_02-03-04_02-03-04_02-03-04_02-03-04 1.1.1 1.535026908924 6.067711377648001
bbz_29-02-05_29-02-05_02-04-05_02-04-05_02-04-05_02-04-05_02-04-05 1.1.1 2.25896776469 8.358685065569999
bbz_29-02-06_29-02-06_05-02-06_05-02-06_05-02-06_05-02-06_05-02-06 1.1.1 4.08756988149 20.294117833256
bbz_29-02-06_29-02-06_None_None_None_None_None 1.1.2 1.4796149626124997 4.9400886910874995
bbz_29-02-08_29-02-08_08-10-08_08-10-08_08-10-08_08-10-08_08-10-08 1.1.1 1.6485981070650002 6.53586231795
bbz_29-02-08_29-02-08_09-10-08_09-10-08_09-10-08_09-10-08_09-10-08 1.1.1 1.497013330254 5.3768379007460005
bbz_29-03-04_29-03-04_03-02-04_03-02-04_03-02-04_03-02-04_03-02-04 1.1.1 2.320611402654 10.328370730636
bbz_29-03-12_29-03-12_08-12-12_08-12-12_08-12-12_08-12-12_08-12-12 1.1.1 1.9367079790799997 5.969107428059997
bbz_29-03-12_29-03-12_09-12-12_09-12-12_09-12-12_09-12-12_09-12-12 1.1.1 1.772144172654 4.977272634366
bbz_29-03-12_29-03-12_10-12-12_10-12-12_10-12-12_10-12-12_10-12-12 1.1.1 2.19872905835 8.380405292799999
bbz_29-05-09_29-05-09_03-03-09_03-03-09_03-03-09_03-03-09_03-03-09 1.1.1 3.1787274048480003 13.895410307927994
bbz_30-02-05_30-02-05_01-04-05_01-04-05_01-04-05_01-04-05_01-04-05 1.1.1 2.1881485245050003 5.781435258338
bbz_30-02-06_30-02-06_03-02-06_03-02-06_03-02-06_03-02-06_03-02-06 1.1.1 2.152942239888 9.507923986175998
bbz_30-03-12_30-03-12_10-12-12_10-12-12_10-12-12_10-12-12_10-12-12 1.1.1 1.8535443361920003 4.543484121959999
bca_28-02-06_28-02-06_03-02-06_03-02-06_03-02-06_03-02-06_03-02-06_03-02-06 1.1.1 3.0128119597080003 14.268542033898006
bca_30-01-01_30-01-01_09-08-01_09-08-01_09-08-01_09-08-01_09-08-01_09-08-01 1.1.1 1.184374081303 2.909695472006
bcb_28-01-01_28-01-01_08-08-01_08-08-01_08-08-01_08-08-01_08-08-01 1.1.1 1.288074666476 5.213803877749999
bcb_30-04-05_30-04-05_02-02-05_02-02-05_02-02-05_02-02-05_02-02-05 1.1.1 1.6566264043080003 4.031300675020002
bcd_29-02-04_29-02-04_01-03-04_01-03-04_01-03-04_01-03-04_01-03-04_01-03-04 1.1.1 1.7397352070999998 6.5610862315439995
bcf_28-02-04_28-02-04_02-03-04_02-03-04_02-03-04_02-03-04_02-03-04_02-03-04_02-03-04 1.1.1 1.3356711152399998 5.4615071510819995
bcf_28-03-09_28-03-09_02-05-09_02-05-09_02-05-09_02-05-09_02-05-09_02-05-09_02-05-09 1.1.1 1.9451296326960001 7.789660499411999
bcf_29-01-01_29-01-01_06-08-01_06-08-01_06-08-01_06-08-01_06-08-01_06-08-01_06-08-01 1.1.1 1.5115198797540004 6.032177179493999
bcf_29-01-01_29-01-01_08-08-01_08-08-01_08-08-01_08-08-01_08-08-01_08-08-01_08-08-01 1.1.1 1.5802988080879998 6.280923997348
bcf_29-01-01_29-01-01_09-08-01_09-08-01_09-08-01_09-08-01_09-08-01_09-08-01_09-08-01 1.1.1 1.4113709110589996 5.175026673883
bcf_29-01-01_29-01-01_10-08-01_10-08-01_10-08-01_10-08-01_10-08-01_10-08-01_10-08-01 1.1.1 1.9935960361559997 8.745270617766002
bcf_29-02-04_29-02-04_03-03-04_03-03-04_03-03-04_03-03-04_03-03-04_03-03-04_03-03-04 1.1.1 2.261463500835 9.818132672425
bcf_29-02-04_29-02-04_05-03-04_05-03-04_05-03-04_05-03-04_05-03-04_05-03-04_05-03-04 1.1.1 3.0916455458309997 14.576574695924997
bcf_29-02-06_29-02-06_03-02-06_03-02-06_03-02-06_03-02-06_03-02-06_03-02-06_03-02-06 1.1.1 2.8907103298580004 13.367749416658
bcf_29-02-08_29-02-08_06-10-08_06-10-08_06-10-08_06-10-08_06-10-08_06-10-08_06-10-08 1.1.1 1.416783067327 5.722050076066
bcf_29-02-08_29-02-08_08-10-08_08-10-08_08-10-08_08-10-08_08-10-08_08-10-08_08-10-08 1.1.1 1.5984294376439998 6.170049115230001
bcf_29-02-08_29-02-08_10-10-08_10-10-08_10-10-08_10-10-08_10-10-08_10-10-08_10-10-08 1.1.1 1.969019475321 8.615610547745003
bcf_29-03-12_29-03-12_07-12-12_07-12-12_07-12-12_07-12-12_07-12-12_07-12-12_07-12-12 1.1.1 1.7839251270429997 4.7786851301510005
bcf_29-03-12_29-03-12_08-12-12_08-12-12_08-12-12_08-12-12_08-12-12_08-12-12_08-12-12 1.1.1 1.8635136316829997 5.6184146239590005
bcf_29-03-12_29-03-12_09-12-12_09-12-12_09-12-12_09-12-12_09-12-12_09-12-12_09-12-12 1.1.1 1.7512000381439998 4.690642000317999
bcf_29-03-12_29-03-12_10-12-12_10-12-12_10-12-12_10-12-12_10-12-12_10-12-12_10-12-12 1.1.1 2.170979375288 7.870288022875999
bcf_29-04-05_29-04-05_05-02-05_05-02-05_05-02-05_05-02-05_05-02-05_05-02-05_05-02-05 1.1.1 3.944922054075 18.385246167225002
bcf_29-05-09_29-05-09_01-03-09_01-03-09_01-03-09_01-03-09_01-03-09_01-03-09_01-03-09 1.1.1 2.4682638301699997 9.805701698692
bcf_30-03-12_30-03-12_06-12-12_06-12-12_06-12-12_06-12-12_06-12-12_06-12-12_06-12-12 1.1.1 1.725114513304 2.4421465960799997
bcf_30-04-05_30-04-05_04-02-05_04-02-05_04-02-05_04-02-05_04-02-05_04-02-05_04-02-05 1.1.1 2.3662242115599996 7.2885856745680035
bcf_30-04-05_30-04-05_05-02-05_05-02-05_05-02-05_05-02-05_05-02-05_05-02-05_05-02-05 1.1.1 3.1147543113980003 12.797429174632
bcf_30-05-09_30-05-09_01-03-09_01-03-09_01-03-09_01-03-09_01-03-09_01-03-09_01-03-09 1.1.1 1.8923608459 5.714428097839999
bcj_28-04-05_28-04-05_02-02-05_02-02-05_02-02-05_02-02-05 1.1.1 3.2124776775000012 14.0775623625
bcm_28-01-01_28-01-01_06-08-01_07-08-01_06-08-01 1.1.1 1.015275709143 3.4100863513199995
bcm_28-02-06_29-02-06_03-02-06_04-02-06_03-02-06 1.1.1 1.91035923012 7.5063610153199996
bcm_28-02-06_29-02-06_04-02-06_03-02-06_03-02-06 1.1.1 1.7475460598 7.118142632700001
bcm_28-02-08_29-02-08_06-10-08_06-10-08_06-10-08 1.1.1 1.1165714593779998 3.4222526631980004
bcm_29-01-01_29-01-01_06-08-01_07-08-01_06-08-01 1.1.1 1.028402428296 3.6372174118409992
bcm_29-01-01_29-01-01_07-08-01_06-08-01_07-08-01 1.1.1 0.93994294209 3.280257729375
bcm_29-02-08_29-02-08_06-10-08_07-10-08_06-10-08 1.1.1 1.0941455181600002 3.4217374885050003
bcm_29-02-08_29-02-08_08-10-08_09-10-08_08-10-08 1.1.1 1.084499917152 3.5121387119610006
bcm_29-02-08_29-02-08_09-10-08_09-10-08_08-10-08 1.1.1 1.1485289788200002 3.14730765682
bcm_29-03-12_29-03-12_07-12-12_06-12-12_07-12-12 1.1.1 1.3725619943349998 2.9515242885700004
bcm_30-01-01_30-01-01_08-08-01_08-08-01_09-08-01 2.2.1 0.9064809509999999 2.0198023185
bcn_28-01-01_29-01-01_07-08-01_07-08-01_07-08-01_07-08-01 1.1.1 1.0271128084639998 3.4181744965279997
bcn_28-02-04_29-02-04_01-03-04_01-03-04_01-03-04_01-03-04 1.1.1 1.2909903188 4.301409501760001
bcn_29-02-06_29-02-06_04-02-06_04-02-06_04-02-06_03-02-06 1.1.1 1.586064522936 5.5815896781250025
bcn_30-02-06_30-02-06_02-02-06_01-02-06_02-02-06_01-02-06 1.1.1 1.074125538342 3.14378206344
bcp_29-01-01_31-01-01_06-08-01_06-08-01_06-08-01_06-08-01 1.1.1 1.0937222959799997 3.908901867675
bcp_29-02-04_31-02-04_02-03-04_02-03-04_02-03-04_02-03-04 1.1.1 1.0933586222670002 3.784178907597
bcp_29-02-04_31-02-04_03-03-04_03-03-04_03-03-04_03-03-04 1.1.1 1.6537663022249998 6.293967338950001
bcp_29-02-08_31-02-08_06-10-08_06-10-08_06-10-08_06-10-08 1.1.1 1.2384144393599998 3.7990942957450002
bcp_29-02-08_31-02-08_07-10-08_07-10-08_07-10-08_07-10-08 1.1.1 1.1679354103200001 3.4290298784700006
bcp_29-03-09_31-03-09_01-05-09_01-05-09_01-05-09_01-05-09 1.1.1 1.840983175275 6.080190403356003
bcp_29-03-12_31-03-12_06-12-12_06-12-12_06-12-12_06-12-12 1.1.1 1.4291474222999998 3.101249906391
bcp_29-03-12_31-03-12_07-12-12_07-12-12_07-12-12_07-12-12 1.1.1 1.5435624054759995 3.0584645010359996
bcp_29-04-05_31-04-05_05-02-05_05-02-05_05-02-05_05-02-05 1.1.1 2.5702389774679997 10.308265862784
bcp_29-05-09_31-05-09_04-03-09_04-03-09_04-03-09_04-03-09 1.1.1 2.03349478664 7.6090460461000005
bcp_30-02-08_30-02-08_09-10-08_09-10-08_09-10-08_09-10-08 1.2.1 1.2566054023350002 1.421257802065
bcq_29-02-06_29-02-06_01-02-06_01-02-06_01-02-06_01-02-06 1.1.1 1.7716228855200002 7.2612758133360025
bcr_28-05-09_29-05-09_02-03-09_02-03-09_02-03-09_02-03-09 1.1.1 2.118314393385 7.8506720233800005
bcr_28-05-09_29-05-09_04-03-09_04-03-09_04-03-09_04-03-09 1.1.1 2.7725332528389997 11.716992282974
bcr_29-04-05_28-04-05_01-02-05_01-02-05_01-02-05_01-02-05 1.1.1 2.6520097247999996 9.687202189199999
bcr_29-04-05_28-04-05_02-02-05_02-02-05_02-02-05_02-02-05 1.1.1 2.22906302395 7.964415378080001
bcr_29-04-05_29-04-05_01-02-05_01-02-05_01-02-05_01-02-05 1.1.1 2.6671492611359997 10.24513625499
bcr_29-04-05_29-04-05_02-02-05_02-02-05_02-02-05_02-02-05 1.1.1 2.3586633191749997 8.694145069194
bcr_29-04-05_29-04-05_03-02-05_03-02-05_03-02-05_03-02-05 1.1.1 3.3809974538549996 14.36444322299
bcu-f_17-08-01_01-01-01_01-01-01_01-01-01 1.1.1 1.056771547356 2.786936994249
bcu-g_11-02-06_03-02-06_03-02-06_03-02-06 1.1.2 1.213675811152 2.5965144012919996
bcu-g_11-03-12_08-12-12_08-12-12_08-12-12 2.2.1 3.2057569630339997 1.109447811824
bcu-g_12-03-04_02-02-04_02-02-04_02-02-04 2.1.1 1.14443094682 1.3548420177600002
bcu-g_13-02-05_02-04-05_02-04-05_02-04-05 2.2.1 1.4390636817124998 1.816087745925
bcu-g_13-03-09_02-05-09_02-05-09_02-05-09 1.1.1 1.3870904687939998 3.662225942517
bcu-g_13-03-09_05-05-09_05-05-09_05-05-09 1.1.1 1.5140785809840005 4.5475420931190005
bcu-g_13-05-09_01-03-09_01-03-09_01-03-09 1.1.1 1.6617819689019997 3.629707997096
bcu-g_14-02-06_05-02-06_05-02-06_05-02-06 1.1.1 2.2145554766089997 9.68829648486
bcu-g_14-02-08_09-10-08_09-10-08_09-10-08 1.1.1 1.115626882419 2.620992413718
bcu-g_14-02-08_10-10-08_10-10-08_10-10-08 1.1.1 1.084783757148 2.1668645647349996
bcu-g_14-03-09_02-05-09_02-05-09_02-05-09 2.1.1 1.1542246562990002 1.9069983371829995
bcu-g_14-03-12_09-12-12_09-12-12_09-12-12 1.1.1 1.3097361902940001 2.008516723308
bcu-g_16-02-04_03-03-04_03-03-04_03-03-04 1.1.1 1.5985886769859996 5.827881044943999
bcu-g_16-02-08_07-10-08_07-10-08_07-10-08 1.1.1 1.09051026175 2.776606897225
bcu-g_35-11-03_03-01-03_03-01-03_03-01-03 1.1.1 1.1207407516320005 2.134529092826
bcv_28-01-01_28-01-01_06-08-01_06-08-01_07-08-01 1.1.1 1.2806242855669998 5.099700149555
bcv_28-01-01_28-01-01_06-08-01_07-08-01_06-08-01 1.1.1 1.267021947312 5.0789754678520005
bcv_28-01-01_28-01-01_07-08-01_07-08-01_06-08-01 1.1.1 1.230634002612 4.9112727465959995
bcv_28-01-01_29-01-01_06-08-01_06-08-01_06-08-01 1.1.1 1.4053466099460004 5.496897833418002
bcv_28-02-04_29-02-04_01-03-04_01-03-04_01-03-04 1.1.1 1.7037073273769998 6.599975319828001
bcv_28-02-04_29-02-04_02-03-04_02-03-04_02-03-04 1.1.1 1.391556250544 5.35183353869
[...]
zeb_29-02-08_29-02-08_31-02-08_08-10-08_08-10-08_08-10-08_08-10-08_08-10-08_08-10-08_08-10-08_08-10-08_08-10-08 1.1.1 1.5773532216790005 5.932811372795
zeb_29-02-08_29-02-08_31-02-08_09-10-08_09-10-08_09-10-08_09-10-08_09-10-08_09-10-08_09-10-08_09-10-08_09-10-08 1.1.1 1.4385585323100003 4.864202764215
zeb_29-02-08_29-02-08_31-02-08_10-10-08_10-10-08_10-10-08_10-10-08_10-10-08_10-10-08_10-10-08_10-10-08_10-10-08 1.1.1 1.9160015758450004 8.325942447543
zeb_29-03-12_29-03-12_31-03-12_07-12-12_07-12-12_07-12-12_07-12-12_07-12-12_07-12-12_07-12-12_07-12-12_07-12-12 1.1.1 1.8215048575100008 4.572666962773
zeb_29-03-12_29-03-12_31-03-12_09-12-12_09-12-12_09-12-12_09-12-12_09-12-12_09-12-12_09-12-12_09-12-12_09-12-12 1.1.1 1.80672705603 4.5662764761900005
zeb_29-03-12_29-03-12_31-03-12_10-12-12_10-12-12_10-12-12_10-12-12_10-12-12_10-12-12_10-12-12_10-12-12_10-12-12 1.1.1 2.184464989512 7.632601434732001
zhc_2_02-01-01_3_21-08-01_4_25-08-01 1.1.1 1.6945172265640005 6.915168247946001
zhc_2_02-03-04_3_16-02-04_4_31-02-04 1.1.1 1.4536768557799995 6.0102980217600015
zhc_2_02-03-09_3_16-05-09_4_31-05-09 1.1.1 2.172738845104 9.017209730544
zhc_2_02-03-12_3_21-12-12_4_25-12-12 1.1.1 1.784907768982 6.254139696387
zhc_2_04-01-01_3_21-08-01_4_25-08-01 1.1.1 2.26607007396 10.204723531310002
zhc_2_06-12-12_3_16-03-12_4_31-03-12 1.1.1 1.7673889907599998 5.432232645191998
zhc_2_07-12-12_3_16-03-12_4_31-03-12 1.1.1 1.7676010048680002 5.198838594914
zhc_2_09-08-01_3_16-01-01_4_31-01-01 1.1.1 1.4227752477820002 5.431695858407
zhc_2_09-10-08_3_16-02-08_4_31-02-08 1.1.1 1.4657203855319998 5.260467172609999
zjz-a_16-01-01_16-01-01_16-01-01_16-01-01_16-01-01_06-08-01_06-08-01_06-08-01_06-08-01_06-08-01_06-08-01_06-08-01_06-08-01 1.1.1 4.250510357744 22.463351439392
zjz-a_16-03-12_16-03-12_16-03-12_16-03-12_16-03-12_06-12-12_06-12-12_06-12-12_06-12-12_06-12-12_06-12-12_06-12-12_06-12-12 1.1.1 4.116271393632 19.786615196608
zjz-a_16-03-12_16-03-12_16-03-12_16-03-12_16-03-12_07-12-12_07-12-12_07-12-12_07-12-12_07-12-12_07-12-12_07-12-12_07-12-12 1.1.1 3.856939470383999 18.392432633568003
zjz-a_19-10-08_19-10-08_19-10-08_19-10-08_19-10-08_02-02-08_02-02-08_02-02-08_02-02-08_02-02-08_02-02-08_02-02-08_02-02-08 1.1.1 3.4073138239800005 16.614870580165
zjz-a_23-12-12_23-12-12_23-12-12_23-12-12_23-12-12_02-03-12_02-03-12_02-03-12_02-03-12_02-03-12_02-03-12_02-03-12_02-03-12 1.1.1 3.397899214325 14.829144940225005
zjz-a_35-11-03_35-11-03_35-11-03_35-11-03_35-11-03_04-01-03_04-01-03_04-01-03_04-01-03_04-01-03_04-01-03_04-01-03_04-01-03 1.1.1 3.0369871776240003 11.777288079023998
zjz-a_36-11-11_36-11-11_36-11-11_36-11-11_36-11-11_04-07-11_04-07-11_04-07-11_04-07-11_04-07-11_04-07-11_04-07-11_04-07-11 1.1.1 2.44996192964 10.64282165582
zme_14-02-05_13-02-05_04-04-05_04-04-05_04-04-05 1.1.1 4.317109817856 19.96561086454
zme_16-02-06_16-02-06_04-02-06_03-02-06_03-02-06 1.1.1 3.8807320066300006 19.001046204652
zme_16-02-06_16-02-06_04-02-06_04-02-06_03-02-06 1.1.1 3.5238052628100003 17.692401334030002
zmj_21-08-01_21-08-01_25-08-01_25-08-01_02-01-01_02-01-01_02-01-01_02-01-01_02-01-01 1.1.1 1.633550139676 6.6686957783809975
zni_28-01-01_06-08-01_07-08-01_06-08-01 1.1.1 0.8694709045920002 2.395854008118001
zni_28-01-01_07-08-01_07-08-01_07-08-01 1.1.1 0.8540790755200001 2.3314416646400002
zni_28-01-01_08-08-01_08-08-01_08-08-01 1.1.1 0.953684261842 2.6015997654399996
zni_28-01-01_09-08-01_09-08-01_08-08-01 1.1.1 0.944447007182 2.3992278837380003
zni_28-01-01_09-08-01_09-08-01_09-08-01 1.1.1 1.0256007090920003 1.8383568510140005
zni_28-02-08_06-10-08_07-10-08_06-10-08 1.1.1 0.922062014712 2.39939093451
zni_28-02-08_07-10-08_07-10-08_07-10-08 1.1.1 0.921989227392 2.3095104170400003
zni_28-02-08_08-10-08_09-10-08_08-10-08 1.1.1 1.15727679561 2.090768942847
zni_28-02-08_09-10-08_08-10-08_09-10-08 1.1.1 1.02576357744 2.3389434882800004
zni_28-02-08_09-10-08_09-10-08_09-10-08 1.1.1 1.068973216693 2.2428364263489997
zni_28-03-09_02-05-09_02-05-09_02-05-09 1.1.1 1.20603663054 3.5530612686899996
zni_28-03-12_09-12-12_09-12-12_09-12-12 1.1.1 1.6126016750280003 1.7373588246720002
zni_29-01-01_07-08-01_07-08-01_07-08-01 1.1.1 0.9154630897960004 2.4400578401120008
zni_29-01-01_08-08-01_08-08-01_08-08-01 1.1.1 0.9772717804850002 2.8766159762339987
zni_29-01-01_09-08-01_08-08-01_09-08-01 1.1.1 0.944403728545 2.3769492418349993
zni_29-01-01_09-08-01_09-08-01_09-08-01 1.1.1 0.999547384737 2.388965489737
zni_29-01-01_10-08-01_10-08-01_10-08-01 1.1.1 1.1244233713860001 3.745143988451999
zni_29-02-04_03-03-04_03-03-04_03-03-04 1.1.1 1.296639525335 4.2431280487750005
zni_29-02-04_05-03-04_05-03-04_05-03-04 1.1.1 1.6066861318559995 5.898818149218
zni_29-02-08_06-10-08_06-10-08_06-10-08 1.1.1 0.9316757742980002 2.7550433056930013
zni_29-02-08_06-10-08_07-10-08_06-10-08 1.1.1 0.929875286624 2.699090335007999
zni_29-02-08_06-10-08_07-10-08_07-10-08 1.1.1 0.9658515568799999 2.578167692112
zni_29-02-08_07-10-08_07-10-08_07-10-08 1.1.1 0.975449849 2.586272258735
zni_29-02-08_08-10-08_08-10-08_08-10-08 1.1.1 1.074445594092 2.8589171676780007
zni_29-02-08_09-10-08_09-10-08_09-10-08 1.1.1 1.0480765310839997 2.3993456348399995
zni_29-02-08_10-10-08_10-10-08_10-10-08 1.1.1 1.175006574168 3.9549720027759987
zni_29-03-12_06-12-12_06-12-12_07-12-12 1.1.1 1.3834476116640002 2.27603279754
zni_29-03-12_08-12-12_08-12-12_08-12-12 1.1.1 1.360547678907 2.6303508848069996
zni_29-03-12_09-12-12_08-12-12_09-12-12 1.1.1 1.56019927401 1.6756614523350002
zni_29-03-12_09-12-12_09-12-12_08-12-12 1.1.1 1.6703237308290002 1.7544948916349998
zni_29-03-12_10-12-12_10-12-12_10-12-12 1.1.1 1.4376722315979995 3.425568714692
zni_29-05-09_01-03-09_01-03-09_01-03-09 1.1.1 1.511760259377 4.128694889301
zni_29-05-09_02-03-09_02-03-09_02-03-09 1.1.1 1.303417250694 3.4149946409280005
zni_29-05-09_05-03-09_05-03-09_05-03-09 1.1.1 2.090681206586 7.852518469933998
zni_30-01-01_06-08-01_07-08-01_06-08-01 1.1.1 0.80871923909 1.226166016446
zni_30-01-01_07-08-01_07-08-01_06-08-01 1.1.1 0.706888578935 1.101703766801
zni_30-01-01_07-08-01_07-08-01_07-08-01 1.1.1 0.662290187852 1.024826359455
zni_30-01-01_08-08-01_08-08-01_08-08-01 1.1.1 0.9769543643880001 1.349340077322
zni_30-01-01_08-08-01_09-08-01_08-08-01 1.1.1 1.700594832992 1.6133742423839998
zni_30-01-01_10-08-01_10-08-01_10-08-01 1.1.1 0.859590741779 2.312697009672
zni_30-02-08_06-10-08_06-10-08_06-10-08 1.1.1 1.3519400724399997 1.30664311125
zni_30-02-08_07-10-08_06-10-08_06-10-08 1.1.1 1.260254430465 1.241333720517
zni_30-02-08_07-10-08_07-10-08_06-10-08 1.1.1 1.060505226396 1.1503563185519998
zni_30-02-08_07-10-08_07-10-08_07-10-08 1.1.1 1.074626078375 1.0771036024749998
zni_30-02-08_08-10-08_08-10-08_08-10-08 1.1.1 1.255459323078 1.3640056454020004
zni_30-02-08_08-10-08_08-10-08_09-10-08 1.1.1 1.4618260065200002 1.2006752717399998
zni_30-02-08_09-10-08_08-10-08_09-10-08 1.1.1 1.5566726450030002 1.407833208999
zni_30-02-08_09-10-08_09-10-08_09-10-08 1.1.1 1.7777031063200002 1.4367505067299997
zni_30-02-08_10-10-08_10-10-08_10-10-08 1.1.1 0.926422872372 2.28112964154
zni_30-03-09_05-05-09_05-05-09_05-05-09 1.1.1 1.666426459395 5.1759178443
zni_30-03-12_06-12-12_06-12-12_06-12-12 1.1.1 3.624747721716 0.975185935284
zni_30-03-12_06-12-12_06-12-12_07-12-12 1.1.1 2.6979607590719996 0.9664020038400001
zni_30-03-12_07-12-12_07-12-12_07-12-12 1.1.1 2.6775880620570005 1.000991183525
zni_30-03-12_08-12-12_08-12-12_09-12-12 1.1.1 1.6484154232280002 1.7027065857879995
zni_30-03-12_08-12-12_09-12-12_09-12-12 1.1.1 2.4947124384 1.0253907791680001
zni_30-03-12_09-12-12_08-12-12_08-12-12 1.1.1 2.55823561512 1.3387377053699998
zni_30-03-12_09-12-12_09-12-12_09-12-12 1.1.1 2.3574225994019997 1.090088664132
zra-d_28-02-06_28-02-06_28-02-06_28-02-06_28-02-06_04-02-06_04-02-06_04-02-06_04-02-06_04-02-06_04-02-06_04-02-06_04-02-06 1.1.1 2.027454201962 8.742408240494
zra-d_28-03-12_28-03-12_28-03-12_28-03-12_28-03-12_06-12-12_06-12-12_06-12-12_06-12-12_06-12-12_06-12-12_06-12-12_06-12-12 1.1.1 1.476508210302 3.5788034383400005
zra-d_28-03-12_28-03-12_28-03-12_28-03-12_28-03-12_09-12-12_09-12-12_09-12-12_09-12-12_09-12-12_09-12-12_09-12-12_09-12-12 1.1.1 1.501809110219 3.4083858611110003
zra-d_29-01-01_29-01-01_29-01-01_29-01-01_29-01-01_09-08-01_09-08-01_09-08-01_09-08-01_09-08-01_09-08-01_09-08-01_09-08-01 1.1.1 1.18600729016 3.911045221328
zra-d_29-02-06_29-02-06_29-02-06_29-02-06_29-02-06_02-02-06_02-02-06_02-02-06_02-02-06_02-02-06_02-02-06_02-02-06_02-02-06 1.1.1 1.56696176148 6.4954190184559994
zra-d_29-02-08_29-02-08_29-02-08_29-02-08_29-02-08_08-10-08_08-10-08_08-10-08_08-10-08_08-10-08_08-10-08_08-10-08_08-10-08 1.1.1 1.332814226202 4.694114846862
zra-d_29-03-12_29-03-12_29-03-12_29-03-12_29-03-12_10-12-12_10-12-12_10-12-12_10-12-12_10-12-12_10-12-12_10-12-12_10-12-12 1.1.1 1.8023421316799997 5.90521998369
zul_29-01-01_31-01-01_16-01-01_06-08-01_06-08-01_06-08-01_06-08-01_06-08-01_06-08-01 1.1.1 1.3027114771760002 5.0808829734810015
zul_29-01-01_31-01-01_16-01-01_07-08-01_07-08-01_07-08-01_07-08-01_07-08-01_07-08-01 1.1.1 1.2118043794450002 4.5252359405650004
zul_29-01-01_31-01-01_16-01-01_08-08-01_08-08-01_08-08-01_08-08-01_08-08-01_08-08-01 1.1.1 1.434493982493 5.514683807859
zul_29-01-01_31-01-01_16-01-01_09-08-01_09-08-01_09-08-01_09-08-01_09-08-01_09-08-01 1.1.1 1.264853229248 4.45343647563
zul_29-01-01_31-01-01_16-01-01_10-08-01_10-08-01_10-08-01_10-08-01_10-08-01_10-08-01 1.1.1 1.7115402708799998 7.3882796876680015
zul_29-02-06_31-02-06_16-02-06_01-02-06_01-02-06_01-02-06_01-02-06_01-02-06_01-02-06 1.1.1 2.031814839954 8.644526748548998
zul_29-02-06_31-02-06_16-02-06_02-02-06_02-02-06_02-02-06_02-02-06_02-02-06_02-02-06 1.1.1 1.7228504677519996 7.240248403319996
zul_29-02-06_31-02-06_16-02-06_04-02-06_04-02-06_04-02-06_04-02-06_04-02-06_04-02-06 1.1.1 2.382925842096 10.303230215544
zul_29-02-06_31-02-06_16-02-06_05-02-06_05-02-06_05-02-06_05-02-06_05-02-06_05-02-06 1.1.1 3.388722309288001 15.826292748709998
zul_29-02-06_31-02-06_16-02-06_None_None_None_None_None_None 1.1.1 1.250747553556 3.9312473348980017
zul_29-02-08_31-02-08_16-02-08_06-10-08_06-10-08_06-10-08_06-10-08_06-10-08_06-10-08 1.1.1 1.3054972624110002 4.884387147858001
zul_29-02-08_31-02-08_16-02-08_07-10-08_07-10-08_07-10-08_07-10-08_07-10-08_07-10-08 1.1.1 1.315119653562 4.546162991656002
zul_29-02-08_31-02-08_16-02-08_08-10-08_08-10-08_08-10-08_08-10-08_08-10-08_08-10-08 1.1.1 1.4131111303900001 5.236341085803999
zul_29-02-08_31-02-08_16-02-08_09-10-08_09-10-08_09-10-08_09-10-08_09-10-08_09-10-08 1.1.1 1.347419982909 4.359370070783001
zul_29-02-08_31-02-08_16-02-08_10-10-08_10-10-08_10-10-08_10-10-08_10-10-08_10-10-08 1.1.1 1.7116533618479997 7.2548254370039995
zul_29-03-12_31-03-12_16-03-12_06-12-12_06-12-12_06-12-12_06-12-12_06-12-12_06-12-12 1.1.1 1.5712743029559997 4.364113202583
zul_29-03-12_31-03-12_16-03-12_07-12-12_07-12-12_07-12-12_07-12-12_07-12-12_07-12-12 1.1.1 1.5420007568100005 4.14681478425
zul_29-03-12_31-03-12_16-03-12_08-12-12_08-12-12_08-12-12_08-12-12_08-12-12_08-12-12 1.1.1 1.658965119141 4.832104513192
zul_29-03-12_31-03-12_16-03-12_09-12-12_09-12-12_09-12-12_09-12-12_09-12-12_09-12-12 1.1.1 1.53030438372 4.051012879119999
zul_29-03-12_31-03-12_16-03-12_10-12-12_10-12-12_10-12-12_10-12-12_10-12-12_10-12-12 1.1.1 1.9721517158720008 6.719511986048003
zul_30-04-05_30-04-05_12-04-05_01-02-05_01-02-05_01-02-05_01-02-05_01-02-05_01-02-05 1.1.1 1.9586309501000003 4.5711118746
zul_30-04-05_30-04-05_12-04-05_03-02-05_03-02-05_03-02-05_03-02-05_03-02-05_03-02-05 1.1.1 2.176531424616 6.661882397283997
zxd_11-01-01_11-01-01_07-08-01_07-08-01_07-08-01 1.1.3 0.8832469512621138 0.5186180168971709
zxd_11-01-01_11-01-01_09-08-01_09-08-01_09-08-01 1.1.2 0.917188331916 0.41251681595
zxd_11-01-01_12-01-01_06-08-01_06-08-01_06-08-01 1.1.3 1.6255723206020665 0.6403641077781285
zxd_11-02-08_11-02-08_09-10-08_09-10-08_09-10-08 1.1.2 1.5503483238420004 0.7154973118900001
zxd_11-02-08_12-02-08_07-10-08_07-10-08_07-10-08 1.1.1 0.8609994412180001 2.4334323705230005
zxd_11-03-04_12-03-04_02-02-04_02-02-04_02-02-04 1.1.1 0.955049424178 3.0669418344899997
zxd_11-03-09_12-03-09_01-05-09_01-05-09_01-05-09 1.1.1 1.9159312843560001 6.04977237286
zxd_11-03-12_12-03-12_07-12-12_07-12-12_07-12-12 1.1.2 3.961342691163 0.7304209855020002
zxd_11-03-12_12-03-12_09-12-12_09-12-12_09-12-12 1.1.2 2.3574945145440003 0.8404992317550001
zxd_12-01-01_12-01-01_09-08-01_09-08-01_09-08-01 1.1.1 1.110858822496 2.2513482935
zxd_12-02-08_11-02-08_08-10-08_08-10-08_08-10-08 1.1.1 1.262554611023 2.915296676703
zxd_12-03-04_12-03-04_02-02-04_02-02-04_02-02-04 1.1.1 1.0210191114829998 2.8230762986720004
zxd_13-01-01_13-01-01_09-08-01_09-08-01_09-08-01 1.1.1 1.6449338149019996 6.961603185873
zxd_13-02-04_14-02-04_02-03-04_02-03-04_02-03-04 1.1.1 1.697803652958 7.179901526118001
zxd_13-02-08_13-02-08_09-10-08_09-10-08_09-10-08 1.1.1 1.7072619885900002 6.805772398960001
zxd_13-03-04_13-03-04_03-02-04_03-02-04_03-02-04 1.1.1 2.40518079756 10.982434964939998
zxd_13-05-09_14-05-09_03-03-09_03-03-09_03-03-09 1.1.1 2.9402516720699983 13.298737467914998
zxd_14-02-05_14-02-05_03-04-05_03-04-05_03-04-05 1.1.1 3.1099862967660004 14.179277332530004
zxd_14-03-12_13-03-12_07-12-12_07-12-12_07-12-12 1.1.1 1.6598029641379997 5.784237351662
zxd_14-03-12_13-03-12_09-12-12_09-12-12_09-12-12 1.1.1 1.6160091485120005 5.599348567000001
zxd_14-03-12_14-03-12_09-12-12_09-12-12_09-12-12 1.1.1 1.6610356932300006 5.693979443421002
zxd_14-04-05_14-04-05_01-02-05_01-02-05_01-02-05 1.1.1 2.7763054537680008 11.681361357119998
zxd_14-05-09_13-05-09_05-03-09_05-03-09_05-03-09 1.1.1 4.921243802205001 24.33184687221
zxd_15-03-09_15-03-09_02-05-09_02-05-09_02-05-09 1.1.1 3.1255972123030005 14.994219642587002
zxd_16-01-01_16-01-01_07-08-01_07-08-01_07-08-01 1.1.1 1.248988785372 5.405127207755999
zxd_16-02-06_16-02-06_03-02-06_04-02-06_03-02-06 1.1.1 2.8396697759800005 13.606084045
zxd_16-02-06_16-02-06_04-02-06_03-02-06_04-02-06 1.1.1 2.695843198227 12.374426869053002
zxd_16-03-12_16-03-12_09-12-12_09-12-12_09-12-12 1.1.1 1.3314397720890003 3.809592543729
zxd_16-05-09_16-05-09_05-03-09_05-03-09_05-03-09 1.1.1 3.896307440508001 18.745153239984
zxd_17-12-12_17-12-12_02-03-12_02-03-12_02-03-12 1.1.2 6.4388398930239985 0.4885734197575
zxd_20-10-08_20-10-08_01-02-08_01-02-08_01-02-08 1.1.5 1.1697054120576003 0.41710425546240004
zxd_20-10-08_20-10-08_02-02-08_02-02-08_02-02-08 1.1.1 1.619709362865 6.916785869646
zxd_20-12-12_21-12-12_05-03-12_05-03-12_05-03-12 1.1.1 3.3637513506299994 16.027980119844006
zxd_21-10-08_21-10-08_01-02-08_01-02-08_01-02-08 1.1.1 1.632719513992 6.319755241596
zxd_21-12-12_20-12-12_02-03-12_02-03-12_02-03-12 1.1.1 1.5470795667999997 5.06441046426
zxd_21-12-12_20-12-12_05-03-12_05-03-12_05-03-12 1.1.1 3.2366848091829996 14.631866651236999
zxd_22-08-01_22-08-01_02-01-01_02-01-01_02-01-01 1.1.1 1.6324178261159998 6.945821028432003
zxd_23-08-01_18-08-01_04-01-01_04-01-01_04-01-01 1.1.1 1.7299240247040002 7.281339698808002
zxd_23-08-01_23-08-01_02-01-01_02-01-01_02-01-01 1.1.2 1.0789053591539999 1.7968418985330001
zxd_23-08-01_23-08-01_04-01-01_04-01-01_04-01-01 1.1.2 1.0792695562449997 2.231464810232
zxd_23-10-08_23-10-08_04-02-08_04-02-08_04-02-08 1.1.2 1.3280987535640003 2.1539532330820004
zxd_23-12-12_23-12-12_04-03-12_04-03-12_04-03-12 1.1.1 1.944912307491 7.009427710479
zxd_33-11-02_33-11-02_01-01-02_01-01-02_01-01-02 1.1.3 1.2752142630147332 0.4707549827224294
zxd_33-11-02_33-11-02_03-01-02_04-01-02_04-01-02 1.1.3 1.6464873772191069 0.5547634387902143
zxd_34-11-10_34-11-10_01-06-10_01-06-10_02-06-10 1.1.2 2.742458225600501 0.4155367964110001
zxd_34-11-10_34-11-10_01-06-10_02-06-10_02-06-10 1.1.1 1.02354029998 1.5917500790299997
zxd_34-11-10_34-11-10_02-06-10_01-06-10_01-06-10 1.1.1 1.03604996931 1.9114646681489995
zxd_35-11-03_35-11-03_02-01-03_01-01-03_02-01-03 1.1.2 1.884575291001 1.3145090032945002
zxd_35-11-03_35-11-03_03-01-03_03-01-03_04-01-03 1.1.2 1.7676186266320002 1.6202400741240002
zxd_35-11-03_35-11-03_05-01-03_05-01-03_05-01-03 1.1.1 1.9638842802750005 7.697045235099998
zxd_36-11-11_36-11-11_04-07-11_04-07-11_03-07-11 1.1.1 0.95695231105 2.7459045613249997
zyg-a_11-02-04_11-02-04_11-02-04_11-02-04_05-03-04_05-03-04_05-03-04_05-03-04_05-03-04_05-03-04_05-03-04 1.1.1 5.929891870224 30.870157352285997
zyg-a_11-04-05_11-04-05_11-04-05_11-04-05_03-02-05_03-02-05_03-02-05_03-02-05_03-02-05_03-02-05_03-02-05 1.1.1 5.554461376882 26.52142389916
zyg-a_16-02-04_16-02-04_16-02-04_16-02-04_02-03-04_02-03-04_02-03-04_02-03-04_02-03-04_02-03-04_02-03-04 1.1.1 3.1894745242100004 16.24681554301
zyg-a_16-02-04_16-02-04_16-02-04_16-02-04_04-03-04_04-03-04_04-03-04_04-03-04_04-03-04_04-03-04_04-03-04 1.1.1 4.981736801692 26.061039092884997
zyg-a_16-02-08_16-02-08_16-02-08_16-02-08_08-10-08_08-10-08_08-10-08_08-10-08_08-10-08_08-10-08_08-10-08 1.1.1 3.3718995949619996 16.554042804522
zyg-a_16-03-12_16-03-12_16-03-12_16-03-12_10-12-12_10-12-12_10-12-12_10-12-12_10-12-12_10-12-12_10-12-12 1.1.1 4.667374967281002 23.137203122423
zyg-a_18-08-01_18-08-01_18-08-01_18-08-01_03-01-01_03-01-01_03-01-01_03-01-01_03-01-01_03-01-01_03-01-01 1.1.1 3.676387549475 18.65901622174
zyg-a_18-12-12_18-12-12_18-12-12_18-12-12_03-03-12_03-03-12_03-03-12_03-03-12_03-03-12_03-03-12_03-03-12 1.1.1 4.09071303289 19.518611119259997
zyg-a_20-08-01_20-08-01_20-08-01_20-08-01_01-01-01_01-01-01_01-01-01_01-01-01_01-01-01_01-01-01_01-01-01 1.1.1 4.354319246573 23.071893442268003
zyg-a_23-12-12_23-12-12_23-12-12_23-12-12_02-03-12_02-03-12_02-03-12_02-03-12_02-03-12_02-03-12_02-03-12 1.1.1 2.5471487015110004 10.049592621115
zyg-a_32-02-04_32-02-04_32-02-04_32-02-04_02-03-04_02-03-04_02-03-04_02-03-04_02-03-04_02-03-04_02-03-04 1.1.1 2.50985353502 11.373821034939999
zyg-a_32-02-05_32-02-05_32-02-05_32-02-05_01-04-05_01-04-05_01-04-05_01-04-05_01-04-05_01-04-05_01-04-05 1.1.1 4.88497095132 22.884936516409997
zyg-a_32-02-08_32-02-08_32-02-08_32-02-08_09-10-08_09-10-08_09-10-08_09-10-08_09-10-08_09-10-08_09-10-08 1.1.1 2.641881036333 11.825562734062
zyg-a_32-03-12_32-03-12_32-03-12_32-03-12_08-12-12_08-12-12_08-12-12_08-12-12_08-12-12_08-12-12_08-12-12 1.1.1 2.588875986329 10.467652113713
zyg_15-02-06_14-02-06_24-02-06_01-02-06_02-02-06 1.1.1 2.467405481588 11.721338811097002
zyg_16-02-06_16-02-06_31-02-06_02-02-06_01-02-06 1.1.1 1.8700638445649995 8.350453423767
zyg_16-03-04_16-03-04_31-03-04_02-02-04_02-02-04 1.1.1 1.3076228004840005 5.266306045539
zyg_16-03-04_16-03-04_31-03-04_05-02-04_05-02-04 1.1.1 2.7725483684220005 13.203564535332001
zyg_16-04-05_16-04-05_31-04-05_02-02-05_02-02-05 1.1.1 1.9548935888580001 7.297406310726
zyg_16-05-09_16-05-09_31-05-09_01-03-09_01-03-09 1.1.1 2.151328326332 8.780841636376
zyg_16-05-09_16-05-09_31-05-09_04-03-09_04-03-09 1.1.1 2.531054357676 10.666150393107998
zyg_16-05-09_16-05-09_31-05-09_05-03-09_05-03-09 1.1.1 3.5389178333280005 16.235035483968
zyg_21-10-08_21-10-08_25-10-08_04-02-08_04-02-08 1.1.1 2.056023966592 8.345663830220001
zyg_21-12-12_21-12-12_25-12-12_04-03-12_04-03-12 1.1.1 2.059557077296 8.083476124768
zyl_16-01-01_16-01-01_29-01-01_06-08-01_06-08-01_06-08-01_06-08-01 1.1.1 1.2689122865599998 5.4594177402240005
zyl_16-01-01_16-01-01_29-01-01_08-08-01_08-08-01_08-08-01_08-08-01 1.1.1 1.5204019835999998 5.94969070347
zyl_16-01-01_16-01-01_29-01-01_09-08-01_09-08-01_09-08-01_09-08-01 1.1.1 1.2976734569039998 4.745624005620001
zyl_16-02-05_16-02-05_29-02-05_03-04-05_03-04-05_03-04-05_03-04-05 1.1.1 2.751787576824 11.849802962399998
zyl_16-02-06_16-02-06_29-02-06_01-02-06_01-02-06_01-02-06_01-02-06 1.1.1 2.115882953447 9.243143343882002
zyl_16-02-08_16-02-08_29-02-08_06-10-08_06-10-08_06-10-08_06-10-08 1.1.1 1.433790390102 5.483237435465997
zyl_16-02-08_16-02-08_29-02-08_09-10-08_09-10-08_09-10-08_09-10-08 1.1.1 1.304947662928 4.629158433394999
zyl_16-05-09_16-05-09_29-05-09_02-03-09_02-03-09_02-03-09_02-03-09 1.1.1 1.921735742976 7.666924891248
